 Entering Gaussian System, Link 0=g16
 Initial command:
 /soft/g16.a03/g16/l1.exe "/scr/macias/296043.qcexmaster.qcexval.uv.es_vib6_-0.20/Gau-16528.inp" -scrdir="/scr/macias/296043.qcexmaster.qcexval.uv.es_vib6_-0.20/"
 Entering Link 1 = /soft/g16.a03/g16/l1.exe PID=     16529.
  
 Copyright (c) 1988,1990,1992,1993,1995,1998,2003,2009,2016,
            Gaussian, Inc.  All Rights Reserved.
  
 This is part of the Gaussian(R) 16 program.  It is based on
 the Gaussian(R) 09 system (copyright 2009, Gaussian, Inc.),
 the Gaussian(R) 03 system (copyright 2003, Gaussian, Inc.),
 the Gaussian(R) 98 system (copyright 1998, Gaussian, Inc.),
 the Gaussian(R) 94 system (copyright 1995, Gaussian, Inc.),
 the Gaussian 92(TM) system (copyright 1992, Gaussian, Inc.),
 the Gaussian 90(TM) system (copyright 1990, Gaussian, Inc.),
 the Gaussian 88(TM) system (copyright 1988, Gaussian, Inc.),
 the Gaussian 86(TM) system (copyright 1986, Carnegie Mellon
 University), and the Gaussian 82(TM) system (copyright 1983,
 Carnegie Mellon University). Gaussian is a federally registered
 trademark of Gaussian, Inc.
  
 This software contains proprietary and confidential information,
 including trade secrets, belonging to Gaussian, Inc.
  
 This software is provided under written license and may be
 used, copied, transmitted, or stored only in accord with that
 written license.
  
 The following legend is applicable only to US Government
 contracts under FAR:
  
                    RESTRICTED RIGHTS LEGEND
  
 Use, reproduction and disclosure by the US Government is
 subject to restrictions as set forth in subparagraphs (a)
 and (c) of the Commercial Computer Software - Restricted
 Rights clause in FAR 52.227-19.
  
 Gaussian, Inc.
 340 Quinnipiac St., Bldg. 40, Wallingford CT 06492
  
  
 ---------------------------------------------------------------
 Warning -- This program may not be used in any manner that
 competes with the business of Gaussian, Inc. or will provide
 assistance to any competitor of Gaussian, Inc.  The licensee
 of this program is prohibited from giving any competitor of
 Gaussian, Inc. access to this program.  By using this program,
 the user acknowledges that Gaussian, Inc. is engaged in the
 business of creating and licensing software in the field of
 computational chemistry and represents and warrants to the
 licensee that it is not a competitor of Gaussian, Inc. and that
 it will not use this program in any manner prohibited above.
 ---------------------------------------------------------------
  

 Cite this work as:
 Gaussian 16, Revision A.03,
 M. J. Frisch, G. W. Trucks, H. B. Schlegel, G. E. Scuseria, 
 M. A. Robb, J. R. Cheeseman, G. Scalmani, V. Barone, 
 G. A. Petersson, H. Nakatsuji, X. Li, M. Caricato, A. V. Marenich, 
 J. Bloino, B. G. Janesko, R. Gomperts, B. Mennucci, H. P. Hratchian, 
 J. V. Ortiz, A. F. Izmaylov, J. L. Sonnenberg, D. Williams-Young, 
 F. Ding, F. Lipparini, F. Egidi, J. Goings, B. Peng, A. Petrone, 
 T. Henderson, D. Ranasinghe, V. G. Zakrzewski, J. Gao, N. Rega, 
 G. Zheng, W. Liang, M. Hada, M. Ehara, K. Toyota, R. Fukuda, 
 J. Hasegawa, M. Ishida, T. Nakajima, Y. Honda, O. Kitao, H. Nakai, 
 T. Vreven, K. Throssell, J. A. Montgomery, Jr., J. E. Peralta, 
 F. Ogliaro, M. J. Bearpark, J. J. Heyd, E. N. Brothers, K. N. Kudin, 
 V. N. Staroverov, T. A. Keith, R. Kobayashi, J. Normand, 
 K. Raghavachari, A. P. Rendell, J. C. Burant, S. S. Iyengar, 
 J. Tomasi, M. Cossi, J. M. Millam, M. Klene, C. Adamo, R. Cammi, 
 J. W. Ochterski, R. L. Martin, K. Morokuma, O. Farkas, 
 J. B. Foresman, and D. J. Fox, Gaussian, Inc., Wallingford CT, 2016.
 
 ******************************************
 Gaussian 16:  ES64L-G16RevA.03 25-Dec-2016
                16-Jul-2026 
 ******************************************
 %chk=opt_freq.chk
 %nproc=2
 Will use up to    2 processors via shared memory.
 %mem=2GB
 ----------------------
 #sp b3lyp/6-311+G(3df)
 ----------------------
 1/38=1,172=1/1;
 2/12=2,17=6,18=5,40=1/2;
 3/5=4,6=6,7=16,11=2,25=1,30=1,74=-5/1,2,3;
 4//1;
 5/5=2,38=5/2;
 6/7=2,8=2,9=2,10=2,28=1/1;
 99/5=1,9=1/99;
 --------------------
 single point of HOSO
 --------------------
 Symbolic Z-matrix:
 Charge =  0 Multiplicity = 2
 S                    -0.14317  -0.47768   0.01442 
 O                     1.32848   0.2441   -0.04346 
 O                    -1.19626   0.55127  -0.01789 
 H                     1.217     1.37586   0.28207 
 
                          Input orientation:                          
 ---------------------------------------------------------------------
 Center     Atomic      Atomic             Coordinates (Angstroms)
 Number     Number       Type             X           Y           Z
 ---------------------------------------------------------------------
      1         16           0       -0.143170   -0.477675    0.014424
      2          8           0        1.328478    0.244099   -0.043462
      3          8           0       -1.196263    0.551268   -0.017893
      4          1           0        1.216997    1.375861    0.282065
 ---------------------------------------------------------------------
                    Distance matrix (angstroms):
                    1          2          3          4
     1  S    0.000000
     2  O    1.640139   0.000000
     3  O    1.472675   2.543487   0.000000
     4  H    2.314580   1.182912   2.567830   0.000000
 Stoichiometry    HO2S(2)
 Framework group  C1[X(HO2S)]
 Deg. of freedom     6
 Full point group                 C1      NOp   1
 Largest Abelian subgroup         C1      NOp   1
 Largest concise Abelian subgroup C1      NOp   1
                         Standard orientation:                         
 ---------------------------------------------------------------------
 Center     Atomic      Atomic             Coordinates (Angstroms)
 Number     Number       Type             X           Y           Z
 ---------------------------------------------------------------------
      1         16           0       -0.144891   -0.479687    0.020407
      2          8           0        1.330029    0.234419   -0.048310
      3          8           0       -1.193249    0.553578   -0.025232
      4          1           0        1.224010    1.371018    0.261824
 ---------------------------------------------------------------------
 Rotational constants (GHZ):          33.5663026           9.4602351           7.4056550
 Standard basis: 6-311+G(3df) (5D, 7F)
 There are   146 symmetry adapted cartesian basis functions of A   symmetry.
 There are   128 symmetry adapted basis functions of A   symmetry.
   128 basis functions,   193 primitive gaussians,   146 cartesian basis functions
    17 alpha electrons       16 beta electrons
       nuclear repulsion energy       109.4932489083 Hartrees.
 NAtoms=    4 NActive=    4 NUniq=    4 SFac= 1.00D+00 NAtFMM=   60 NAOKFM=F Big=F
 Integral buffers will be    131072 words long.
 Raffenetti 2 integral format.
 Two-electron integral symmetry is turned on.
 One-electron integrals computed using PRISM.
 NBasis=   128 RedAO= T EigKep=  9.51D-04  NBF=   128
 NBsUse=   128 1.00D-06 EigRej= -1.00D+00 NBFU=   128
 ExpMin= 4.05D-02 ExpMax= 9.34D+04 ExpMxC= 3.17D+03 IAcc=3 IRadAn=         5 AccDes= 0.00D+00
 Harris functional with IExCor=  402 and IRadAn=       5 diagonalized for initial guess.
 HarFok:  IExCor=  402 AccDes= 0.00D+00 IRadAn=         5 IDoV= 1 UseB2=F ITyADJ=14
 ICtDFT=  3500011 ScaDFX=  1.000000  1.000000  1.000000  1.000000
 FoFCou: FMM=F IPFlag=           0 FMFlag=      100000 FMFlg1=           0
         NFxFlg=           0 DoJE=T BraDBF=F KetDBF=T FulRan=T
         wScrn=  0.000000 ICntrl=       500 IOpCl=  0 I1Cent=   200000004 NGrid=           0
         NMat0=    1 NMatS0=      1 NMatT0=    0 NMatD0=    1 NMtDS0=    0 NMtDT0=    0
 Petite list used in FoFCou.
 Initial guess <Sx>= 0.0000 <Sy>= 0.0000 <Sz>= 0.5000 <S**2>= 0.7500 S= 0.5000
 Keep R1 and R2 ints in memory in canonical form, NReq=70152731.
 Requested convergence on RMS density matrix=1.00D-08 within 128 cycles.
 Requested convergence on MAX density matrix=1.00D-06.
 Requested convergence on             energy=1.00D-06.
 No special actions if energy rises.
 SCF Done:  E(UB3LYP) =  -549.268678180     A.U. after   14 cycles
            NFock= 14  Conv=0.57D-08     -V/T= 2.0022
 <Sx>= 0.0000 <Sy>= 0.0000 <Sz>= 0.5000 <S**2>= 0.7552 S= 0.5026
 <L.S>= 0.000000000000E+00
 Annihilation of the first spin contaminant:
 S**2 before annihilation     0.7552,   after     0.7500

 **********************************************************************

            Population analysis using the SCF density.

 **********************************************************************

 Orbital symmetries:
 Alpha Orbitals:
       Occupied  (A) (A) (A) (A) (A) (A) (A) (A) (A) (A) (A) (A)
                 (A) (A) (A) (A) (A)
       Virtual   (A) (A) (A) (A) (A) (A) (A) (A) (A) (A) (A) (A)
                 (A) (A) (A) (A) (A) (A) (A) (A) (A) (A) (A) (A)
                 (A) (A) (A) (A) (A) (A) (A) (A) (A) (A) (A) (A)
                 (A) (A) (A) (A) (A) (A) (A) (A) (A) (A) (A) (A)
                 (A) (A) (A) (A) (A) (A) (A) (A) (A) (A) (A) (A)
                 (A) (A) (A) (A) (A) (A) (A) (A) (A) (A) (A) (A)
                 (A) (A) (A) (A) (A) (A) (A) (A) (A) (A) (A) (A)
                 (A) (A) (A) (A) (A) (A) (A) (A) (A) (A) (A) (A)
                 (A) (A) (A) (A) (A) (A) (A) (A) (A) (A) (A) (A)
                 (A) (A) (A)
 Beta  Orbitals:
       Occupied  (A) (A) (A) (A) (A) (A) (A) (A) (A) (A) (A) (A)
                 (A) (A) (A) (A)
       Virtual   (A) (A) (A) (A) (A) (A) (A) (A) (A) (A) (A) (A)
                 (A) (A) (A) (A) (A) (A) (A) (A) (A) (A) (A) (A)
                 (A) (A) (A) (A) (A) (A) (A) (A) (A) (A) (A) (A)
                 (A) (A) (A) (A) (A) (A) (A) (A) (A) (A) (A) (A)
                 (A) (A) (A) (A) (A) (A) (A) (A) (A) (A) (A) (A)
                 (A) (A) (A) (A) (A) (A) (A) (A) (A) (A) (A) (A)
                 (A) (A) (A) (A) (A) (A) (A) (A) (A) (A) (A) (A)
                 (A) (A) (A) (A) (A) (A) (A) (A) (A) (A) (A) (A)
                 (A) (A) (A) (A) (A) (A) (A) (A) (A) (A) (A) (A)
                 (A) (A) (A) (A)
 The electronic state is 2-A.
 Alpha  occ. eigenvalues --  -88.98123 -19.20498 -19.16118  -8.05425  -6.01803
 Alpha  occ. eigenvalues --   -6.01584  -6.01250  -1.10411  -1.02828  -0.68364
 Alpha  occ. eigenvalues --   -0.52390  -0.47838  -0.47091  -0.41507  -0.38128
 Alpha  occ. eigenvalues --   -0.34118  -0.23086
 Alpha virt. eigenvalues --   -0.05823   0.00153   0.00836   0.02429   0.04653
 Alpha virt. eigenvalues --    0.07415   0.10386   0.14353   0.16496   0.17284
 Alpha virt. eigenvalues --    0.18691   0.20426   0.23077   0.24799   0.25560
 Alpha virt. eigenvalues --    0.27840   0.28661   0.29705   0.31083   0.32301
 Alpha virt. eigenvalues --    0.33162   0.39567   0.42436   0.59989   0.70698
 Alpha virt. eigenvalues --    0.73407   0.78982   0.79894   0.85753   0.88216
 Alpha virt. eigenvalues --    0.89060   0.89513   0.91778   0.93704   0.96964
 Alpha virt. eigenvalues --    1.00350   1.01253   1.02935   1.05257   1.08115
 Alpha virt. eigenvalues --    1.13004   1.19197   1.23899   1.28339   1.29532
 Alpha virt. eigenvalues --    1.32082   1.57385   1.59156   1.65048   1.71487
 Alpha virt. eigenvalues --    1.83372   1.93088   1.98163   1.99552   2.04725
 Alpha virt. eigenvalues --    2.11951   2.23626   2.26434   2.36324   3.29778
 Alpha virt. eigenvalues --    3.33401   3.36582   3.39275   3.41303   3.43181
 Alpha virt. eigenvalues --    3.46542   3.48919   3.58627   3.60454   4.43298
 Alpha virt. eigenvalues --    4.46912   4.50568   4.59885   4.79620   4.90843
 Alpha virt. eigenvalues --    4.92916   4.94209   4.95158   4.96501   4.97757
 Alpha virt. eigenvalues --    5.00057   5.00225   5.06152   5.09546   5.14587
 Alpha virt. eigenvalues --    5.16068   5.34262   5.40609   5.43310   5.52214
 Alpha virt. eigenvalues --    5.56762   5.73972   5.86870   6.45209   8.63143
 Alpha virt. eigenvalues --   14.19065  14.22015  14.23658  14.25798  14.26692
 Alpha virt. eigenvalues --   14.29339  14.32486  14.35208  14.47471  14.57977
 Alpha virt. eigenvalues --   17.22049  17.46635  17.73565  49.87172  49.96401
 Alpha virt. eigenvalues --  189.58913
  Beta  occ. eigenvalues --  -88.97731 -19.20189 -19.15133  -8.05067  -6.01593
  Beta  occ. eigenvalues --   -6.01066  -6.00326  -1.09109  -1.01628  -0.66063
  Beta  occ. eigenvalues --   -0.51431  -0.47112  -0.43666  -0.39882  -0.34728
  Beta  occ. eigenvalues --   -0.33105
  Beta virt. eigenvalues --   -0.11464  -0.05470   0.00527   0.02065   0.02650
  Beta virt. eigenvalues --    0.04892   0.07542   0.10827   0.14604   0.16902
  Beta virt. eigenvalues --    0.17520   0.19299   0.20693   0.23354   0.24875
  Beta virt. eigenvalues --    0.26739   0.28196   0.29002   0.31121   0.32639
  Beta virt. eigenvalues --    0.33148   0.33362   0.39766   0.43089   0.60424
  Beta virt. eigenvalues --    0.71272   0.73798   0.79949   0.80520   0.86647
  Beta virt. eigenvalues --    0.88598   0.90207   0.90712   0.93250   0.94209
  Beta virt. eigenvalues --    0.97857   1.01246   1.03083   1.03553   1.05576
  Beta virt. eigenvalues --    1.08834   1.14324   1.19575   1.25261   1.28793
  Beta virt. eigenvalues --    1.30290   1.32369   1.60794   1.61019   1.66625
  Beta virt. eigenvalues --    1.73129   1.84208   1.94646   1.98928   2.02015
  Beta virt. eigenvalues --    2.04842   2.12428   2.24140   2.27328   2.36649
  Beta virt. eigenvalues --    3.30861   3.35059   3.38946   3.40250   3.42723
  Beta virt. eigenvalues --    3.43889   3.48488   3.49808   3.59040   3.61576
  Beta virt. eigenvalues --    4.44078   4.47087   4.51593   4.60436   4.80246
  Beta virt. eigenvalues --    4.91918   4.93532   4.95034   4.95904   4.97204
  Beta virt. eigenvalues --    5.01486   5.02233   5.02426   5.06677   5.10711
  Beta virt. eigenvalues --    5.15675   5.17048   5.34795   5.41173   5.44253
  Beta virt. eigenvalues --    5.52744   5.57929   5.75779   5.87410   6.45631
  Beta virt. eigenvalues --    8.63634  14.20448  14.24319  14.26669  14.27542
  Beta virt. eigenvalues --   14.28588  14.30476  14.35474  14.36367  14.48049
  Beta virt. eigenvalues --   14.59677  17.23713  17.46924  17.73867  49.87498
  Beta virt. eigenvalues --   49.97356 189.59268
          Condensed to atoms (all electrons):
               1          2          3          4
     1  S   15.326319   0.018936   0.131128   0.012955
     2  O    0.018936   8.344561   0.005944   0.178759
     3  O    0.131128   0.005944   8.257147   0.002957
     4  H    0.012955   0.178759   0.002957   0.370616
          Atomic-Atomic Spin Densities.
               1          2          3          4
     1  S    0.930622  -0.103044  -0.190068  -0.003109
     2  O   -0.103044   0.156321   0.018731  -0.004643
     3  O   -0.190068   0.018731   0.465714  -0.000240
     4  H   -0.003109  -0.004643  -0.000240   0.012091
 Mulliken charges and spin densities:
               1          2
     1  S    0.510662   0.634401
     2  O   -0.548200   0.067364
     3  O   -0.397176   0.294137
     4  H    0.434714   0.004098
 Sum of Mulliken charges =  -0.00000   1.00000
 Mulliken charges and spin densities with hydrogens summed into heavy atoms:
               1          2
     1  S    0.510662   0.634401
     2  O   -0.113486   0.071462
     3  O   -0.397176   0.294137
 Electronic spatial extent (au):  <R**2>=            181.7405
 Charge=             -0.0000 electrons
 Dipole moment (field-independent basis, Debye):
    X=              1.2751    Y=              0.3009    Z=              0.5249  Tot=              1.4113
 Quadrupole moment (field-independent basis, Debye-Ang):
   XX=            -27.1541   YY=            -20.6586   ZZ=            -24.0644
   XY=              3.7436   XZ=              0.6316   YZ=              0.8864
 Traceless Quadrupole moment (field-independent basis, Debye-Ang):
   XX=             -3.1951   YY=              3.3005   ZZ=             -0.1054
   XY=              3.7436   XZ=              0.6316   YZ=              0.8864
 Octapole moment (field-independent basis, Debye-Ang**2):
  XXX=              0.8556  YYY=              6.4441  ZZZ=             -0.1311  XYY=              5.4156
  XXY=              1.2237  XXZ=              0.7624  XZZ=             -0.1270  YZZ=              1.0820
  YYZ=              1.1750  XYZ=              1.0523
 Hexadecapole moment (field-independent basis, Debye-Ang**3):
 XXXX=           -147.9488 YYYY=            -52.9618 ZZZZ=            -26.3399 XXXY=              6.0347
 XXXZ=              0.9043 YYYX=              7.9484 YYYZ=              1.7701 ZZZX=              0.2406
 ZZZY=              0.4722 XXYY=            -27.3015 XXZZ=            -28.2821 YYZZ=            -14.8352
 XXYZ=              1.4176 YYXZ=              1.4359 ZZXY=              0.2894
 N-N= 1.094932489083D+02 E-N=-1.522903412670D+03  KE= 5.480418543409D+02
                          Isotropic Fermi Contact Couplings
        Atom                 a.u.       MegaHertz       Gauss      10(-4) cm-1
     1  S(33)              0.05718      19.63911       7.00772       6.55090
     2  O(17)              0.01998     -12.11060      -4.32136      -4.03966
     3  O(17)              0.03468     -21.02467      -7.50213      -7.01308
     4  H(1)               0.00144       6.41676       2.28966       2.14040
 --------------------------------------------------------
       Center         ----  Spin Dipole Couplings  ----
                      3XX-RR        3YY-RR        3ZZ-RR
 --------------------------------------------------------
     1   Atom       -1.483973     -1.595612      3.079586
     2   Atom       -0.265549     -0.220268      0.485817
     3   Atom       -0.771652     -0.772822      1.544474
     4   Atom       -0.005177      0.015160     -0.009983
 --------------------------------------------------------
                        XY            XZ            YZ
 --------------------------------------------------------
     1   Atom       -0.001388     -0.066437      0.199818
     2   Atom        0.009829      0.023011     -0.152708
     3   Atom        0.001152      0.065422      0.026815
     4   Atom        0.005177      0.000936      0.003755
 --------------------------------------------------------


 ---------------------------------------------------------------------------------
              Anisotropic Spin Dipole Couplings in Principal Axis System
 ---------------------------------------------------------------------------------

       Atom             a.u.   MegaHertz   Gauss  10(-4) cm-1        Axes

              Baa    -1.6042   -65.769   -23.468   -21.938 -0.0121  0.9990 -0.0428
     1 S(33)  Bbb    -1.4849   -60.880   -21.724   -20.308  0.9998  0.0127  0.0140
              Bcc     3.0891   126.649    45.192    42.246 -0.0145  0.0426  0.9990
 
              Baa    -0.2749    19.894     7.099     6.636  0.8498 -0.5113 -0.1283
     2 O(17)  Bbb    -0.2430    17.585     6.275     5.866  0.5265  0.8353  0.1584
              Bcc     0.5180   -37.480   -13.374   -12.502  0.0262 -0.2022  0.9790
 
              Baa    -0.7738    55.988    19.978    18.676  0.8425 -0.5384 -0.0175
     3 O(17)  Bbb    -0.7729    55.925    19.955    18.655  0.5380  0.8426 -0.0249
              Bcc     1.5466  -111.913   -39.933   -37.330  0.0282  0.0116  0.9995
 
              Baa    -0.0105    -5.623    -2.006    -1.876 -0.0412 -0.1363  0.9898
     4 H(1)   Bbb    -0.0064    -3.425    -1.222    -1.142  0.9720 -0.2346  0.0081
              Bcc     0.0170     9.048     3.228     3.018  0.2311  0.9625  0.1422
 

 ---------------------------------------------------------------------------------

 1\1\GINC-QCEXNOD57\SP\UB3LYP\6-311+G(3df)\H1O2S1(2)\ROOT\16-Jul-2026\0
 \\#sp b3lyp/6-311+G(3df)\\single point of HOSO\\0,2\S,0,-0.14317,-0.47
 7675,0.014424\O,0,1.328478,0.244099,-0.043462\O,0,-1.196263,0.551268,-
 0.017893\H,0,1.216997,1.375861,0.282065\\Version=ES64L-G16RevA.03\Stat
 e=2-A\HF=-549.2686782\S2=0.755217\S2-1=0.\S2A=0.750019\RMSD=5.729e-09\
 Dipole=0.5009717,0.1178545,0.2084656\Quadrupole=-2.4017167,2.4608762,-
 0.0591595,2.7538017,0.5026072,0.6976824\PG=C01 [X(H1O2S1)]\\@


 THERE'S SMALL CHOICE IN A BOWL OF ROTTEN APPLES.
                     SHAKESPEARE
 Job cpu time:       0 days  0 hours  0 minutes 16.3 seconds.
 Elapsed time:       0 days  0 hours  0 minutes  8.5 seconds.
 File lengths (MBytes):  RWF=     16 Int=      0 D2E=      0 Chk=      2 Scr=      1
 Normal termination of Gaussian 16 at Thu Jul 16 14:38:33 2026.
