 Entering Gaussian System, Link 0=g16
 Initial command:
 /soft/g16.a03/g16/l1.exe "/scr/macias/296029.qcexmaster.qcexval.uv.es_vib4_0.10/Gau-15865.inp" -scrdir="/scr/macias/296029.qcexmaster.qcexval.uv.es_vib4_0.10/"
 Entering Link 1 = /soft/g16.a03/g16/l1.exe PID=     15867.
  
 Copyright (c) 1988,1990,1992,1993,1995,1998,2003,2009,2016,
            Gaussian, Inc.  All Rights Reserved.
  
 This is part of the Gaussian(R) 16 program.  It is based on
 the Gaussian(R) 09 system (copyright 2009, Gaussian, Inc.),
 the Gaussian(R) 03 system (copyright 2003, Gaussian, Inc.),
 the Gaussian(R) 98 system (copyright 1998, Gaussian, Inc.),
 the Gaussian(R) 94 system (copyright 1995, Gaussian, Inc.),
 the Gaussian 92(TM) system (copyright 1992, Gaussian, Inc.),
 the Gaussian 90(TM) system (copyright 1990, Gaussian, Inc.),
 the Gaussian 88(TM) system (copyright 1988, Gaussian, Inc.),
 the Gaussian 86(TM) system (copyright 1986, Carnegie Mellon
 University), and the Gaussian 82(TM) system (copyright 1983,
 Carnegie Mellon University). Gaussian is a federally registered
 trademark of Gaussian, Inc.
  
 This software contains proprietary and confidential information,
 including trade secrets, belonging to Gaussian, Inc.
  
 This software is provided under written license and may be
 used, copied, transmitted, or stored only in accord with that
 written license.
  
 The following legend is applicable only to US Government
 contracts under FAR:
  
                    RESTRICTED RIGHTS LEGEND
  
 Use, reproduction and disclosure by the US Government is
 subject to restrictions as set forth in subparagraphs (a)
 and (c) of the Commercial Computer Software - Restricted
 Rights clause in FAR 52.227-19.
  
 Gaussian, Inc.
 340 Quinnipiac St., Bldg. 40, Wallingford CT 06492
  
  
 ---------------------------------------------------------------
 Warning -- This program may not be used in any manner that
 competes with the business of Gaussian, Inc. or will provide
 assistance to any competitor of Gaussian, Inc.  The licensee
 of this program is prohibited from giving any competitor of
 Gaussian, Inc. access to this program.  By using this program,
 the user acknowledges that Gaussian, Inc. is engaged in the
 business of creating and licensing software in the field of
 computational chemistry and represents and warrants to the
 licensee that it is not a competitor of Gaussian, Inc. and that
 it will not use this program in any manner prohibited above.
 ---------------------------------------------------------------
  

 Cite this work as:
 Gaussian 16, Revision A.03,
 M. J. Frisch, G. W. Trucks, H. B. Schlegel, G. E. Scuseria, 
 M. A. Robb, J. R. Cheeseman, G. Scalmani, V. Barone, 
 G. A. Petersson, H. Nakatsuji, X. Li, M. Caricato, A. V. Marenich, 
 J. Bloino, B. G. Janesko, R. Gomperts, B. Mennucci, H. P. Hratchian, 
 J. V. Ortiz, A. F. Izmaylov, J. L. Sonnenberg, D. Williams-Young, 
 F. Ding, F. Lipparini, F. Egidi, J. Goings, B. Peng, A. Petrone, 
 T. Henderson, D. Ranasinghe, V. G. Zakrzewski, J. Gao, N. Rega, 
 G. Zheng, W. Liang, M. Hada, M. Ehara, K. Toyota, R. Fukuda, 
 J. Hasegawa, M. Ishida, T. Nakajima, Y. Honda, O. Kitao, H. Nakai, 
 T. Vreven, K. Throssell, J. A. Montgomery, Jr., J. E. Peralta, 
 F. Ogliaro, M. J. Bearpark, J. J. Heyd, E. N. Brothers, K. N. Kudin, 
 V. N. Staroverov, T. A. Keith, R. Kobayashi, J. Normand, 
 K. Raghavachari, A. P. Rendell, J. C. Burant, S. S. Iyengar, 
 J. Tomasi, M. Cossi, J. M. Millam, M. Klene, C. Adamo, R. Cammi, 
 J. W. Ochterski, R. L. Martin, K. Morokuma, O. Farkas, 
 J. B. Foresman, and D. J. Fox, Gaussian, Inc., Wallingford CT, 2016.
 
 ******************************************
 Gaussian 16:  ES64L-G16RevA.03 25-Dec-2016
                16-Jul-2026 
 ******************************************
 %chk=opt_freq.chk
 %nproc=2
 Will use up to    2 processors via shared memory.
 %mem=2GB
 ----------------------
 #sp b3lyp/6-311+G(3df)
 ----------------------
 1/38=1,172=1/1;
 2/12=2,17=6,18=5,40=1/2;
 3/5=4,6=6,7=16,11=2,25=1,30=1,74=-5/1,2,3;
 4//1;
 5/5=2,38=5/2;
 6/7=2,8=2,9=2,10=2,28=1/1;
 99/5=1,9=1/99;
 --------------------
 single point of HOSO
 --------------------
 Symbolic Z-matrix:
 Charge =  0 Multiplicity = 2
 S                    -0.13817  -0.47668   0.01542 
 O                     1.33348   0.2501   -0.04146 
 O                    -1.20526   0.55627  -0.01789 
 H                     1.137     1.16486   0.24307 
 
                          Input orientation:                          
 ---------------------------------------------------------------------
 Center     Atomic      Atomic             Coordinates (Angstroms)
 Number     Number       Type             X           Y           Z
 ---------------------------------------------------------------------
      1         16           0       -0.138170   -0.476675    0.015424
      2          8           0        1.333478    0.250099   -0.041462
      3          8           0       -1.205263    0.556268   -0.017893
      4          1           0        1.136997    1.164861    0.243065
 ---------------------------------------------------------------------
                    Distance matrix (angstroms):
                    1          2          3          4
     1  S    0.000000
     2  O    1.642311   0.000000
     3  O    1.485520   2.557245   0.000000
     4  H    2.091055   0.977931   2.434064   0.000000
 Stoichiometry    HO2S(2)
 Framework group  C1[X(HO2S)]
 Deg. of freedom     6
 Full point group                 C1      NOp   1
 Largest Abelian subgroup         C1      NOp   1
 Largest concise Abelian subgroup C1      NOp   1
                         Standard orientation:                         
 ---------------------------------------------------------------------
 Center     Atomic      Atomic             Coordinates (Angstroms)
 Number     Number       Type             X           Y           Z
 ---------------------------------------------------------------------
      1         16           0       -0.128953   -0.478501    0.014990
      2          8           0        1.330718    0.272130   -0.040663
      3          8           0       -1.212696    0.536914   -0.019737
      4          1           0        1.119077    1.183660    0.243365
 ---------------------------------------------------------------------
 Rotational constants (GHZ):          34.7127927           9.4007570           7.4172096
 Standard basis: 6-311+G(3df) (5D, 7F)
 There are   146 symmetry adapted cartesian basis functions of A   symmetry.
 There are   128 symmetry adapted basis functions of A   symmetry.
   128 basis functions,   193 primitive gaussians,   146 cartesian basis functions
    17 alpha electrons       16 beta electrons
       nuclear repulsion energy       110.2010978011 Hartrees.
 NAtoms=    4 NActive=    4 NUniq=    4 SFac= 1.00D+00 NAtFMM=   60 NAOKFM=F Big=F
 Integral buffers will be    131072 words long.
 Raffenetti 2 integral format.
 Two-electron integral symmetry is turned on.
 One-electron integrals computed using PRISM.
 NBasis=   128 RedAO= T EigKep=  9.77D-04  NBF=   128
 NBsUse=   128 1.00D-06 EigRej= -1.00D+00 NBFU=   128
 ExpMin= 4.05D-02 ExpMax= 9.34D+04 ExpMxC= 3.17D+03 IAcc=3 IRadAn=         5 AccDes= 0.00D+00
 Harris functional with IExCor=  402 and IRadAn=       5 diagonalized for initial guess.
 HarFok:  IExCor=  402 AccDes= 0.00D+00 IRadAn=         5 IDoV= 1 UseB2=F ITyADJ=14
 ICtDFT=  3500011 ScaDFX=  1.000000  1.000000  1.000000  1.000000
 FoFCou: FMM=F IPFlag=           0 FMFlag=      100000 FMFlg1=           0
         NFxFlg=           0 DoJE=T BraDBF=F KetDBF=T FulRan=T
         wScrn=  0.000000 ICntrl=       500 IOpCl=  0 I1Cent=   200000004 NGrid=           0
         NMat0=    1 NMatS0=      1 NMatT0=    0 NMatD0=    1 NMtDS0=    0 NMtDT0=    0
 Petite list used in FoFCou.
 Initial guess <Sx>= 0.0000 <Sy>= 0.0000 <Sz>= 0.5000 <S**2>= 0.7500 S= 0.5000
 Keep R1 and R2 ints in memory in canonical form, NReq=70152788.
 Requested convergence on RMS density matrix=1.00D-08 within 128 cycles.
 Requested convergence on MAX density matrix=1.00D-06.
 Requested convergence on             energy=1.00D-06.
 No special actions if energy rises.
 SCF Done:  E(UB3LYP) =  -549.292726327     A.U. after   14 cycles
            NFock= 14  Conv=0.35D-08     -V/T= 2.0019
 <Sx>= 0.0000 <Sy>= 0.0000 <Sz>= 0.5000 <S**2>= 0.7553 S= 0.5027
 <L.S>= 0.000000000000E+00
 Annihilation of the first spin contaminant:
 S**2 before annihilation     0.7553,   after     0.7500

 **********************************************************************

            Population analysis using the SCF density.

 **********************************************************************

 Orbital symmetries:
 Alpha Orbitals:
       Occupied  (A) (A) (A) (A) (A) (A) (A) (A) (A) (A) (A) (A)
                 (A) (A) (A) (A) (A)
       Virtual   (A) (A) (A) (A) (A) (A) (A) (A) (A) (A) (A) (A)
                 (A) (A) (A) (A) (A) (A) (A) (A) (A) (A) (A) (A)
                 (A) (A) (A) (A) (A) (A) (A) (A) (A) (A) (A) (A)
                 (A) (A) (A) (A) (A) (A) (A) (A) (A) (A) (A) (A)
                 (A) (A) (A) (A) (A) (A) (A) (A) (A) (A) (A) (A)
                 (A) (A) (A) (A) (A) (A) (A) (A) (A) (A) (A) (A)
                 (A) (A) (A) (A) (A) (A) (A) (A) (A) (A) (A) (A)
                 (A) (A) (A) (A) (A) (A) (A) (A) (A) (A) (A) (A)
                 (A) (A) (A) (A) (A) (A) (A) (A) (A) (A) (A) (A)
                 (A) (A) (A)
 Beta  Orbitals:
       Occupied  (A) (A) (A) (A) (A) (A) (A) (A) (A) (A) (A) (A)
                 (A) (A) (A) (A)
       Virtual   (A) (A) (A) (A) (A) (A) (A) (A) (A) (A) (A) (A)
                 (A) (A) (A) (A) (A) (A) (A) (A) (A) (A) (A) (A)
                 (A) (A) (A) (A) (A) (A) (A) (A) (A) (A) (A) (A)
                 (A) (A) (A) (A) (A) (A) (A) (A) (A) (A) (A) (A)
                 (A) (A) (A) (A) (A) (A) (A) (A) (A) (A) (A) (A)
                 (A) (A) (A) (A) (A) (A) (A) (A) (A) (A) (A) (A)
                 (A) (A) (A) (A) (A) (A) (A) (A) (A) (A) (A) (A)
                 (A) (A) (A) (A) (A) (A) (A) (A) (A) (A) (A) (A)
                 (A) (A) (A) (A) (A) (A) (A) (A) (A) (A) (A) (A)
                 (A) (A) (A) (A)
 The electronic state is 2-A.
 Alpha  occ. eigenvalues --  -88.98514 -19.19966 -19.16623  -8.05821  -6.02199
 Alpha  occ. eigenvalues --   -6.01973  -6.01645  -1.11987  -1.04694  -0.70319
 Alpha  occ. eigenvalues --   -0.54526  -0.48705  -0.47550  -0.42395  -0.38828
 Alpha  occ. eigenvalues --   -0.34530  -0.23718
 Alpha virt. eigenvalues --   -0.02788  -0.00312   0.01267   0.03653   0.04658
 Alpha virt. eigenvalues --    0.07670   0.11749   0.14507   0.16384   0.16811
 Alpha virt. eigenvalues --    0.18352   0.20187   0.23238   0.24610   0.25242
 Alpha virt. eigenvalues --    0.28196   0.28568   0.29760   0.30795   0.32045
 Alpha virt. eigenvalues --    0.32972   0.41529   0.48054   0.59133   0.69826
 Alpha virt. eigenvalues --    0.73191   0.78392   0.79614   0.85420   0.87600
 Alpha virt. eigenvalues --    0.88612   0.88713   0.91511   0.93804   0.96736
 Alpha virt. eigenvalues --    0.99808   1.00943   1.02031   1.04754   1.07247
 Alpha virt. eigenvalues --    1.12194   1.18938   1.22890   1.27519   1.29694
 Alpha virt. eigenvalues --    1.34174   1.57151   1.58767   1.64350   1.70281
 Alpha virt. eigenvalues --    1.81996   1.92237   1.96624   1.99021   2.01928
 Alpha virt. eigenvalues --    2.10915   2.21851   2.24876   2.38650   3.27833
 Alpha virt. eigenvalues --    3.32564   3.35981   3.38656   3.40840   3.45500
 Alpha virt. eigenvalues --    3.46446   3.53431   3.59230   3.60450   4.42817
 Alpha virt. eigenvalues --    4.46359   4.49559   4.58759   4.78284   4.88522
 Alpha virt. eigenvalues --    4.92161   4.93775   4.94310   4.96452   4.97016
 Alpha virt. eigenvalues --    4.99704   5.00816   5.04677   5.11996   5.13949
 Alpha virt. eigenvalues --    5.29361   5.32713   5.41530   5.45500   5.53127
 Alpha virt. eigenvalues --    5.61229   5.72159   5.86884   6.43693   8.59783
 Alpha virt. eigenvalues --   14.18471  14.21797  14.23152  14.25649  14.27684
 Alpha virt. eigenvalues --   14.30869  14.32026  14.35514  14.47949  14.57044
 Alpha virt. eigenvalues --   17.21563  17.46157  17.70580  49.87780  49.95557
 Alpha virt. eigenvalues --  189.55036
  Beta  occ. eigenvalues --  -88.98121 -19.19671 -19.15609  -8.05462  -6.01988
  Beta  occ. eigenvalues --   -6.01462  -6.00708  -1.10968  -1.03208  -0.68178
  Beta  occ. eigenvalues --   -0.53494  -0.48044  -0.44244  -0.40626  -0.35280
  Beta  occ. eigenvalues --   -0.33464
  Beta virt. eigenvalues --   -0.11965  -0.02189   0.00155   0.01878   0.04121
  Beta virt. eigenvalues --    0.04972   0.07868   0.11980   0.14782   0.16770
  Beta virt. eigenvalues --    0.17077   0.18836   0.20536   0.23516   0.24712
  Beta virt. eigenvalues --    0.26424   0.28631   0.29204   0.30790   0.32281
  Beta virt. eigenvalues --    0.32586   0.33507   0.42244   0.48207   0.59564
  Beta virt. eigenvalues --    0.70425   0.73532   0.79408   0.80132   0.86432
  Beta virt. eigenvalues --    0.87863   0.89589   0.90279   0.92631   0.94536
  Beta virt. eigenvalues --    0.97582   1.00767   1.02009   1.03481   1.05044
  Beta virt. eigenvalues --    1.07927   1.13472   1.19446   1.24085   1.28006
  Beta virt. eigenvalues --    1.30502   1.34482   1.60580   1.60597   1.65941
  Beta virt. eigenvalues --    1.71901   1.82828   1.93703   1.97408   2.01474
  Beta virt. eigenvalues --    2.02161   2.11302   2.22348   2.25756   2.39055
  Beta virt. eigenvalues --    3.28820   3.34061   3.38583   3.39587   3.42218
  Beta virt. eigenvalues --    3.47142   3.48038   3.54081   3.60416   3.60693
  Beta virt. eigenvalues --    4.43599   4.46534   4.50575   4.59292   4.78913
  Beta virt. eigenvalues --    4.89267   4.93207   4.94407   4.95022   4.97591
  Beta virt. eigenvalues --    5.00989   5.02000   5.02676   5.05383   5.12986
  Beta virt. eigenvalues --    5.15327   5.30064   5.33240   5.42416   5.46331
  Beta virt. eigenvalues --    5.54110   5.61686   5.73963   5.87427   6.44115
  Beta virt. eigenvalues --    8.60278  14.19809  14.24189  14.26407  14.27402
  Beta virt. eigenvalues --   14.29659  14.32156  14.35066  14.36432  14.48382
  Beta virt. eigenvalues --   14.58794  17.23234  17.46443  17.70883  49.88110
  Beta virt. eigenvalues --   49.96525 189.55392
          Condensed to atoms (all electrons):
               1          2          3          4
     1  S   15.347829  -0.021368   0.135708   0.009060
     2  O   -0.021368   8.428277   0.004946   0.199703
     3  O    0.135708   0.004946   8.252129   0.001578
     4  H    0.009060   0.199703   0.001578   0.312511
          Atomic-Atomic Spin Densities.
               1          2          3          4
     1  S    0.922586  -0.102494  -0.186980  -0.001312
     2  O   -0.102494   0.151886   0.018068  -0.004353
     3  O   -0.186980   0.018068   0.474255  -0.000427
     4  H   -0.001312  -0.004353  -0.000427   0.006272
 Mulliken charges and spin densities:
               1          2
     1  S    0.528771   0.631799
     2  O   -0.611558   0.063106
     3  O   -0.394361   0.304915
     4  H    0.477148   0.000180
 Sum of Mulliken charges =  -0.00000   1.00000
 Mulliken charges and spin densities with hydrogens summed into heavy atoms:
               1          2
     1  S    0.528771   0.631799
     2  O   -0.134410   0.063286
     3  O   -0.394361   0.304915
 Electronic spatial extent (au):  <R**2>=            180.7172
 Charge=              0.0000 electrons
 Dipole moment (field-independent basis, Debye):
    X=              1.1549    Y=             -0.0019    Z=              0.4786  Tot=              1.2502
 Quadrupole moment (field-independent basis, Debye-Ang):
   XX=            -27.4022   YY=            -21.3099   ZZ=            -23.8825
   XY=              2.9772   XZ=              0.5479   YZ=              0.7770
 Traceless Quadrupole moment (field-independent basis, Debye-Ang):
   XX=             -3.2040   YY=              2.8883   ZZ=              0.3157
   XY=              2.9772   XZ=              0.5479   YZ=              0.7770
 Octapole moment (field-independent basis, Debye-Ang**2):
  XXX=              0.8012  YYY=              4.9908  ZZZ=             -0.0479  XYY=              4.1616
  XXY=              0.1700  XXZ=              0.5914  XZZ=              0.0790  YZZ=              1.1453
  YYZ=              0.9275  XYZ=              0.8792
 Hexadecapole moment (field-independent basis, Debye-Ang**3):
 XXXX=           -147.4637 YYYY=            -53.3333 ZZZZ=            -25.8644 XXXY=              4.3239
 XXXZ=              0.7164 YYYX=              5.6416 YYYZ=              1.2786 ZZZX=              0.2738
 ZZZY=              0.5222 XXYY=            -28.6119 XXZZ=            -27.9399 YYZZ=            -14.3139
 XXYZ=              1.1337 YYXZ=              1.0229 ZZXY=              0.3481
 N-N= 1.102010978011D+02 E-N=-1.524294017390D+03  KE= 5.482678194473D+02
                          Isotropic Fermi Contact Couplings
        Atom                 a.u.       MegaHertz       Gauss      10(-4) cm-1
     1  S(33)              0.05694      19.55809       6.97881       6.52388
     2  O(17)              0.01644      -9.96336      -3.55518      -3.32342
     3  O(17)              0.03522     -21.34880      -7.61778      -7.12119
     4  H(1)               0.00014       0.60859       0.21716       0.20300
 --------------------------------------------------------
       Center         ----  Spin Dipole Couplings  ----
                      3XX-RR        3YY-RR        3ZZ-RR
 --------------------------------------------------------
     1   Atom       -1.489844     -1.609407      3.099251
     2   Atom       -0.255773     -0.224204      0.479977
     3   Atom       -0.791802     -0.796604      1.588406
     4   Atom       -0.007762      0.019844     -0.012082
 --------------------------------------------------------
                        XY            XZ            YZ
 --------------------------------------------------------
     1   Atom        0.000889     -0.032411      0.192393
     2   Atom        0.007083      0.020399     -0.111003
     3   Atom        0.001810      0.086399      0.044242
     4   Atom        0.001261      0.000576      0.004739
 --------------------------------------------------------


 ---------------------------------------------------------------------------------
              Anisotropic Spin Dipole Couplings in Principal Axis System
 ---------------------------------------------------------------------------------

       Atom             a.u.   MegaHertz   Gauss  10(-4) cm-1        Axes

              Baa    -1.6173   -66.308   -23.660   -22.118 -0.0174  0.9990 -0.0409
     1 S(33)  Bbb    -1.4900   -61.090   -21.798   -20.377  0.9998  0.0176  0.0063
              Bcc     3.1073   127.398    45.459    42.495 -0.0070  0.0408  0.9991
 
              Baa    -0.2613    18.911     6.748     6.308  0.8928 -0.4412 -0.0906
     2 O(17)  Bbb    -0.2362    17.091     6.099     5.701  0.4497  0.8845  0.1243
              Bcc     0.4975   -36.002   -12.846   -12.009  0.0253 -0.1517  0.9881
 
              Baa    -0.7974    57.702    20.590    19.247 -0.0825  0.9965 -0.0155
     3 O(17)  Bbb    -0.7949    57.520    20.524    19.186  0.9959  0.0819 -0.0376
              Bcc     1.5924  -115.222   -41.114   -38.434  0.0362  0.0185  0.9992
 
              Baa    -0.0128    -6.830    -2.437    -2.278 -0.0776 -0.1403  0.9871
     4 H(1)   Bbb    -0.0078    -4.159    -1.484    -1.387  0.9959 -0.0575  0.0702
              Bcc     0.0206    10.989     3.921     3.665  0.0469  0.9884  0.1442
 

 ---------------------------------------------------------------------------------

 1\1\GINC-QCEXNOD57\SP\UB3LYP\6-311+G(3df)\H1O2S1(2)\ROOT\16-Jul-2026\0
 \\#sp b3lyp/6-311+G(3df)\\single point of HOSO\\0,2\S,0,-0.13817,-0.47
 6675,0.015424\O,0,1.333478,0.250099,-0.041462\O,0,-1.205263,0.556268,-
 0.017893\H,0,1.136997,1.164861,0.243065\\Version=ES64L-G16RevA.03\Stat
 e=2-A\HF=-549.2927263\S2=0.755318\S2-1=0.\S2A=0.75002\RMSD=3.512e-09\D
 ipole=0.4545044,-0.0082224,0.1878414\Quadrupole=-2.3079681,2.0737008,0
 .2342673,2.2865213,0.4200228,0.5692569\PG=C01 [X(H1O2S1)]\\@


 THERE IS NO CURE FOR BIRTH AND DEATH SAVE TO ENJOY THE INTERVAL.

                               -- GEORGE SANTAYANA
 Job cpu time:       0 days  0 hours  0 minutes 16.3 seconds.
 Elapsed time:       0 days  0 hours  0 minutes  8.5 seconds.
 File lengths (MBytes):  RWF=     16 Int=      0 D2E=      0 Chk=      2 Scr=      1
 Normal termination of Gaussian 16 at Thu Jul 16 14:38:23 2026.
