 Entering Gaussian System, Link 0=g16
 Initial command:
 /soft/g16.a03/g16/l1.exe "/scr/macias/296005.qcexmaster.qcexval.uv.es_vib1_0.40/Gau-14655.inp" -scrdir="/scr/macias/296005.qcexmaster.qcexval.uv.es_vib1_0.40/"
 Entering Link 1 = /soft/g16.a03/g16/l1.exe PID=     14674.
  
 Copyright (c) 1988,1990,1992,1993,1995,1998,2003,2009,2016,
            Gaussian, Inc.  All Rights Reserved.
  
 This is part of the Gaussian(R) 16 program.  It is based on
 the Gaussian(R) 09 system (copyright 2009, Gaussian, Inc.),
 the Gaussian(R) 03 system (copyright 2003, Gaussian, Inc.),
 the Gaussian(R) 98 system (copyright 1998, Gaussian, Inc.),
 the Gaussian(R) 94 system (copyright 1995, Gaussian, Inc.),
 the Gaussian 92(TM) system (copyright 1992, Gaussian, Inc.),
 the Gaussian 90(TM) system (copyright 1990, Gaussian, Inc.),
 the Gaussian 88(TM) system (copyright 1988, Gaussian, Inc.),
 the Gaussian 86(TM) system (copyright 1986, Carnegie Mellon
 University), and the Gaussian 82(TM) system (copyright 1983,
 Carnegie Mellon University). Gaussian is a federally registered
 trademark of Gaussian, Inc.
  
 This software contains proprietary and confidential information,
 including trade secrets, belonging to Gaussian, Inc.
  
 This software is provided under written license and may be
 used, copied, transmitted, or stored only in accord with that
 written license.
  
 The following legend is applicable only to US Government
 contracts under FAR:
  
                    RESTRICTED RIGHTS LEGEND
  
 Use, reproduction and disclosure by the US Government is
 subject to restrictions as set forth in subparagraphs (a)
 and (c) of the Commercial Computer Software - Restricted
 Rights clause in FAR 52.227-19.
  
 Gaussian, Inc.
 340 Quinnipiac St., Bldg. 40, Wallingford CT 06492
  
  
 ---------------------------------------------------------------
 Warning -- This program may not be used in any manner that
 competes with the business of Gaussian, Inc. or will provide
 assistance to any competitor of Gaussian, Inc.  The licensee
 of this program is prohibited from giving any competitor of
 Gaussian, Inc. access to this program.  By using this program,
 the user acknowledges that Gaussian, Inc. is engaged in the
 business of creating and licensing software in the field of
 computational chemistry and represents and warrants to the
 licensee that it is not a competitor of Gaussian, Inc. and that
 it will not use this program in any manner prohibited above.
 ---------------------------------------------------------------
  

 Cite this work as:
 Gaussian 16, Revision A.03,
 M. J. Frisch, G. W. Trucks, H. B. Schlegel, G. E. Scuseria, 
 M. A. Robb, J. R. Cheeseman, G. Scalmani, V. Barone, 
 G. A. Petersson, H. Nakatsuji, X. Li, M. Caricato, A. V. Marenich, 
 J. Bloino, B. G. Janesko, R. Gomperts, B. Mennucci, H. P. Hratchian, 
 J. V. Ortiz, A. F. Izmaylov, J. L. Sonnenberg, D. Williams-Young, 
 F. Ding, F. Lipparini, F. Egidi, J. Goings, B. Peng, A. Petrone, 
 T. Henderson, D. Ranasinghe, V. G. Zakrzewski, J. Gao, N. Rega, 
 G. Zheng, W. Liang, M. Hada, M. Ehara, K. Toyota, R. Fukuda, 
 J. Hasegawa, M. Ishida, T. Nakajima, Y. Honda, O. Kitao, H. Nakai, 
 T. Vreven, K. Throssell, J. A. Montgomery, Jr., J. E. Peralta, 
 F. Ogliaro, M. J. Bearpark, J. J. Heyd, E. N. Brothers, K. N. Kudin, 
 V. N. Staroverov, T. A. Keith, R. Kobayashi, J. Normand, 
 K. Raghavachari, A. P. Rendell, J. C. Burant, S. S. Iyengar, 
 J. Tomasi, M. Cossi, J. M. Millam, M. Klene, C. Adamo, R. Cammi, 
 J. W. Ochterski, R. L. Martin, K. Morokuma, O. Farkas, 
 J. B. Foresman, and D. J. Fox, Gaussian, Inc., Wallingford CT, 2016.
 
 ******************************************
 Gaussian 16:  ES64L-G16RevA.03 25-Dec-2016
                16-Jul-2026 
 ******************************************
 %chk=opt_freq.chk
 %nproc=2
 Will use up to    2 processors via shared memory.
 %mem=2GB
 ----------------------
 #sp b3lyp/6-311+G(3df)
 ----------------------
 1/38=1,172=1/1;
 2/12=2,17=6,18=5,40=1/2;
 3/5=4,6=6,7=16,11=2,25=1,30=1,74=-5/1,2,3;
 4//1;
 5/5=2,38=5/2;
 6/7=2,8=2,9=2,10=2,28=1/1;
 99/5=1,9=1/99;
 --------------------
 single point of HOSO
 --------------------
 Symbolic Z-matrix:
 Charge =  0 Multiplicity = 2
 S                    -0.14317  -0.46968   0.02642 
 O                     1.32848   0.2561   -0.07146 
 O                    -1.20826   0.54327  -0.03389 
 H                     1.337     1.07986   0.59607 
 
                          Input orientation:                          
 ---------------------------------------------------------------------
 Center     Atomic      Atomic             Coordinates (Angstroms)
 Number     Number       Type             X           Y           Z
 ---------------------------------------------------------------------
      1         16           0       -0.143170   -0.469675    0.026424
      2          8           0        1.328478    0.256099   -0.071462
      3          8           0       -1.208263    0.543268   -0.033893
      4          1           0        1.336997    1.079861    0.596065
 ---------------------------------------------------------------------
                    Distance matrix (angstroms):
                    1          2          3          4
     1  S    0.000000
     2  O    1.643800   0.000000
     3  O    1.471093   2.553220   0.000000
     4  H    2.217306   1.060306   2.676402   0.000000
 Stoichiometry    HO2S(2)
 Framework group  C1[X(HO2S)]
 Deg. of freedom     6
 Full point group                 C1      NOp   1
 Largest Abelian subgroup         C1      NOp   1
 Largest concise Abelian subgroup C1      NOp   1
                         Standard orientation:                         
 ---------------------------------------------------------------------
 Center     Atomic      Atomic             Coordinates (Angstroms)
 Number     Number       Type             X           Y           Z
 ---------------------------------------------------------------------
      1         16           0       -0.142982   -0.467936    0.032578
      2          8           0        1.327201    0.255851   -0.096925
      3          8           0       -1.209084    0.543327   -0.037344
      4          1           0        1.342778    1.093547    0.552899
 ---------------------------------------------------------------------
 Rotational constants (GHZ):          35.0896594           9.2670201           7.4323150
 Standard basis: 6-311+G(3df) (5D, 7F)
 There are   146 symmetry adapted cartesian basis functions of A   symmetry.
 There are   128 symmetry adapted basis functions of A   symmetry.
   128 basis functions,   193 primitive gaussians,   146 cartesian basis functions
    17 alpha electrons       16 beta electrons
       nuclear repulsion energy       109.9074237637 Hartrees.
 NAtoms=    4 NActive=    4 NUniq=    4 SFac= 1.00D+00 NAtFMM=   60 NAOKFM=F Big=F
 Integral buffers will be    131072 words long.
 Raffenetti 2 integral format.
 Two-electron integral symmetry is turned on.
 One-electron integrals computed using PRISM.
 NBasis=   128 RedAO= T EigKep=  9.18D-04  NBF=   128
 NBsUse=   128 1.00D-06 EigRej= -1.00D+00 NBFU=   128
 ExpMin= 4.05D-02 ExpMax= 9.34D+04 ExpMxC= 3.17D+03 IAcc=3 IRadAn=         5 AccDes= 0.00D+00
 Harris functional with IExCor=  402 and IRadAn=       5 diagonalized for initial guess.
 HarFok:  IExCor=  402 AccDes= 0.00D+00 IRadAn=         5 IDoV= 1 UseB2=F ITyADJ=14
 ICtDFT=  3500011 ScaDFX=  1.000000  1.000000  1.000000  1.000000
 FoFCou: FMM=F IPFlag=           0 FMFlag=      100000 FMFlg1=           0
         NFxFlg=           0 DoJE=T BraDBF=F KetDBF=T FulRan=T
         wScrn=  0.000000 ICntrl=       500 IOpCl=  0 I1Cent=   200000004 NGrid=           0
         NMat0=    1 NMatS0=      1 NMatT0=    0 NMatD0=    1 NMtDS0=    0 NMtDT0=    0
 Petite list used in FoFCou.
 Initial guess <Sx>= 0.0000 <Sy>= 0.0000 <Sz>= 0.5000 <S**2>= 0.7500 S= 0.5000
 Keep R1 and R2 ints in memory in canonical form, NReq=70152731.
 Requested convergence on RMS density matrix=1.00D-08 within 128 cycles.
 Requested convergence on MAX density matrix=1.00D-06.
 Requested convergence on             energy=1.00D-06.
 No special actions if energy rises.
 SCF Done:  E(UB3LYP) =  -549.287764515     A.U. after   14 cycles
            NFock= 14  Conv=0.52D-08     -V/T= 2.0020
 <Sx>= 0.0000 <Sy>= 0.0000 <Sz>= 0.5000 <S**2>= 0.7554 S= 0.5027
 <L.S>= 0.000000000000E+00
 Annihilation of the first spin contaminant:
 S**2 before annihilation     0.7554,   after     0.7500

 **********************************************************************

            Population analysis using the SCF density.

 **********************************************************************

 Orbital symmetries:
 Alpha Orbitals:
       Occupied  (A) (A) (A) (A) (A) (A) (A) (A) (A) (A) (A) (A)
                 (A) (A) (A) (A) (A)
       Virtual   (A) (A) (A) (A) (A) (A) (A) (A) (A) (A) (A) (A)
                 (A) (A) (A) (A) (A) (A) (A) (A) (A) (A) (A) (A)
                 (A) (A) (A) (A) (A) (A) (A) (A) (A) (A) (A) (A)
                 (A) (A) (A) (A) (A) (A) (A) (A) (A) (A) (A) (A)
                 (A) (A) (A) (A) (A) (A) (A) (A) (A) (A) (A) (A)
                 (A) (A) (A) (A) (A) (A) (A) (A) (A) (A) (A) (A)
                 (A) (A) (A) (A) (A) (A) (A) (A) (A) (A) (A) (A)
                 (A) (A) (A) (A) (A) (A) (A) (A) (A) (A) (A) (A)
                 (A) (A) (A) (A) (A) (A) (A) (A) (A) (A) (A) (A)
                 (A) (A) (A)
 Beta  Orbitals:
       Occupied  (A) (A) (A) (A) (A) (A) (A) (A) (A) (A) (A) (A)
                 (A) (A) (A) (A)
       Virtual   (A) (A) (A) (A) (A) (A) (A) (A) (A) (A) (A) (A)
                 (A) (A) (A) (A) (A) (A) (A) (A) (A) (A) (A) (A)
                 (A) (A) (A) (A) (A) (A) (A) (A) (A) (A) (A) (A)
                 (A) (A) (A) (A) (A) (A) (A) (A) (A) (A) (A) (A)
                 (A) (A) (A) (A) (A) (A) (A) (A) (A) (A) (A) (A)
                 (A) (A) (A) (A) (A) (A) (A) (A) (A) (A) (A) (A)
                 (A) (A) (A) (A) (A) (A) (A) (A) (A) (A) (A) (A)
                 (A) (A) (A) (A) (A) (A) (A) (A) (A) (A) (A) (A)
                 (A) (A) (A) (A) (A) (A) (A) (A) (A) (A) (A) (A)
                 (A) (A) (A) (A)
 The electronic state is 2-A.
 Alpha  occ. eigenvalues --  -88.98204 -19.19974 -19.16460  -8.05499  -6.01876
 Alpha  occ. eigenvalues --   -6.01657  -6.01321  -1.10979  -1.03965  -0.69347
 Alpha  occ. eigenvalues --   -0.53948  -0.48277  -0.46845  -0.42506  -0.37476
 Alpha  occ. eigenvalues --   -0.34329  -0.23968
 Alpha virt. eigenvalues --   -0.03950   0.00168   0.01423   0.03377   0.05133
 Alpha virt. eigenvalues --    0.07859   0.10197   0.13999   0.16709   0.17656
 Alpha virt. eigenvalues --    0.18406   0.20542   0.22201   0.25118   0.25336
 Alpha virt. eigenvalues --    0.27948   0.28424   0.30295   0.31955   0.32217
 Alpha virt. eigenvalues --    0.33384   0.41146   0.44163   0.58747   0.70718
 Alpha virt. eigenvalues --    0.75477   0.77948   0.80832   0.83991   0.87456
 Alpha virt. eigenvalues --    0.88067   0.89958   0.91327   0.92663   0.97872
 Alpha virt. eigenvalues --    1.00337   1.01478   1.03647   1.05391   1.08353
 Alpha virt. eigenvalues --    1.12778   1.18421   1.23978   1.28627   1.29449
 Alpha virt. eigenvalues --    1.33274   1.57289   1.59520   1.64743   1.71748
 Alpha virt. eigenvalues --    1.83086   1.91793   1.97640   1.99891   2.03911
 Alpha virt. eigenvalues --    2.12475   2.22484   2.26541   2.34485   3.29927
 Alpha virt. eigenvalues --    3.34234   3.35358   3.38361   3.42039   3.44926
 Alpha virt. eigenvalues --    3.47387   3.49012   3.58870   3.60468   4.43181
 Alpha virt. eigenvalues --    4.46822   4.50718   4.59151   4.78897   4.90759
 Alpha virt. eigenvalues --    4.93596   4.93808   4.95925   4.96462   4.97515
 Alpha virt. eigenvalues --    4.99744   5.00781   5.06423   5.11653   5.14083
 Alpha virt. eigenvalues --    5.24562   5.33877   5.40715   5.43874   5.54095
 Alpha virt. eigenvalues --    5.56756   5.73967   5.86757   6.43586   8.62980
 Alpha virt. eigenvalues --   14.19626  14.22250  14.22947  14.25436  14.28206
 Alpha virt. eigenvalues --   14.29793  14.32333  14.34790  14.47685  14.57743
 Alpha virt. eigenvalues --   17.22188  17.45715  17.73857  49.87725  49.96191
 Alpha virt. eigenvalues --  189.58531
  Beta  occ. eigenvalues --  -88.97818 -19.19785 -19.15395  -8.05147  -6.01666
  Beta  occ. eigenvalues --   -6.01142  -6.00417  -1.09777  -1.02727  -0.67112
  Beta  occ. eigenvalues --   -0.52714  -0.47167  -0.44747  -0.39311  -0.35311
  Beta  occ. eigenvalues --   -0.33226
  Beta virt. eigenvalues --   -0.12113  -0.03442   0.00541   0.02116   0.03838
  Beta virt. eigenvalues --    0.05613   0.08089   0.10556   0.14272   0.16951
  Beta virt. eigenvalues --    0.18202   0.18607   0.21207   0.22519   0.25215
  Beta virt. eigenvalues --    0.26285   0.28518   0.28779   0.31274   0.32680
  Beta virt. eigenvalues --    0.33159   0.34551   0.41663   0.44579   0.59172
  Beta virt. eigenvalues --    0.71290   0.75730   0.78954   0.81285   0.84796
  Beta virt. eigenvalues --    0.88021   0.89348   0.91301   0.92337   0.93679
  Beta virt. eigenvalues --    0.98532   1.01018   1.03141   1.04792   1.05698
  Beta virt. eigenvalues --    1.09151   1.13863   1.18772   1.25437   1.29251
  Beta virt. eigenvalues --    1.30054   1.33562   1.60635   1.61316   1.66300
  Beta virt. eigenvalues --    1.73322   1.84057   1.93309   1.98459   2.02296
  Beta virt. eigenvalues --    2.04061   2.13015   2.22980   2.27485   2.35041
  Beta virt. eigenvalues --    3.30714   3.35931   3.37808   3.39162   3.43226
  Beta virt. eigenvalues --    3.46666   3.48370   3.50160   3.59206   3.61659
  Beta virt. eigenvalues --    4.43940   4.46997   4.51771   4.59677   4.79546
  Beta virt. eigenvalues --    4.91290   4.94261   4.94439   4.96469   4.97348
  Beta virt. eigenvalues --    5.01876   5.02039   5.02770   5.07067   5.12819
  Beta virt. eigenvalues --    5.15546   5.25021   5.34299   5.41346   5.44592
  Beta virt. eigenvalues --    5.54572   5.57969   5.75873   5.87320   6.43998
  Beta virt. eigenvalues --    8.63474  14.20548  14.24735  14.26212  14.26847
  Beta virt. eigenvalues --   14.30171  14.30579  14.35137  14.36307  14.48097
  Beta virt. eigenvalues --   14.59572  17.23828  17.45997  17.74161  49.87949
  Beta virt. eigenvalues --   49.97215 189.58880
          Condensed to atoms (all electrons):
               1          2          3          4
     1  S   15.358843   0.000709   0.134227  -0.003287
     2  O    0.000709   8.389180   0.006517   0.190734
     3  O    0.134227   0.006517   8.235608  -0.000153
     4  H   -0.003287   0.190734  -0.000153   0.358875
          Atomic-Atomic Spin Densities.
               1          2          3          4
     1  S    0.899051  -0.069905  -0.186880  -0.015572
     2  O   -0.069905   0.100557   0.011965  -0.008893
     3  O   -0.186880   0.011965   0.495693   0.003629
     4  H   -0.015572  -0.008893   0.003629   0.036014
 Mulliken charges and spin densities:
               1          2
     1  S    0.509508   0.626693
     2  O   -0.587139   0.033723
     3  O   -0.376199   0.324407
     4  H    0.453830   0.015178
 Sum of Mulliken charges =  -0.00000   1.00000
 Mulliken charges and spin densities with hydrogens summed into heavy atoms:
               1          2
     1  S    0.509508   0.626693
     2  O   -0.133309   0.048900
     3  O   -0.376199   0.324407
 Electronic spatial extent (au):  <R**2>=            181.6879
 Charge=             -0.0000 electrons
 Dipole moment (field-independent basis, Debye):
    X=              1.3684    Y=             -0.0735    Z=              1.1016  Tot=              1.7582
 Quadrupole moment (field-independent basis, Debye-Ang):
   XX=            -26.6041   YY=            -22.0238   ZZ=            -23.2631
   XY=              3.3573   XZ=              1.5383   YZ=              1.5603
 Traceless Quadrupole moment (field-independent basis, Debye-Ang):
   XX=             -2.6404   YY=              1.9398   ZZ=              0.7006
   XY=              3.3573   XZ=              1.5383   YZ=              1.5603
 Octapole moment (field-independent basis, Debye-Ang**2):
  XXX=              2.0296  YYY=              3.9031  ZZZ=              0.2009  XYY=              3.8983
  XXY=              1.4207  XXZ=              2.1280  XZZ=              0.8574  YZZ=              1.6965
  YYZ=              1.7146  XYZ=              2.0519
 Hexadecapole moment (field-independent basis, Debye-Ang**3):
 XXXX=           -147.4059 YYYY=            -54.2944 ZZZZ=            -26.5591 XXXY=              6.8868
 XXXZ=              3.1483 YYYX=              5.0221 YYYZ=              2.2339 ZZZX=              1.0501
 ZZZY=              1.3173 XXYY=            -28.4003 XXZZ=            -27.1515 YYZZ=            -13.6774
 XXYZ=              2.9596 YYXZ=              2.2828 ZZXY=              1.1326
 N-N= 1.099074237637D+02 E-N=-1.523755423540D+03  KE= 5.481665120974D+02
                          Isotropic Fermi Contact Couplings
        Atom                 a.u.       MegaHertz       Gauss      10(-4) cm-1
     1  S(33)              0.05427      18.64038       6.65135       6.21776
     2  O(17)              0.03033     -18.38312      -6.55956      -6.13195
     3  O(17)              0.03630     -22.00304      -7.85123      -7.33943
     4  H(1)               0.00873      39.03035      13.92700      13.01913
 --------------------------------------------------------
       Center         ----  Spin Dipole Couplings  ----
                      3XX-RR        3YY-RR        3ZZ-RR
 --------------------------------------------------------
     1   Atom       -1.459563     -1.560411      3.019974
     2   Atom       -0.170751     -0.114561      0.285312
     3   Atom       -0.822629     -0.833195      1.655824
     4   Atom       -0.002162      0.010729     -0.008567
 --------------------------------------------------------
                        XY            XZ            YZ
 --------------------------------------------------------
     1   Atom       -0.006292     -0.059375      0.355174
     2   Atom        0.010963      0.002029     -0.160655
     3   Atom        0.007989      0.130355      0.120205
     4   Atom        0.007919      0.002518      0.007984
 --------------------------------------------------------


 ---------------------------------------------------------------------------------
              Anisotropic Spin Dipole Couplings in Principal Axis System
 ---------------------------------------------------------------------------------

       Atom             a.u.   MegaHertz   Gauss  10(-4) cm-1        Axes

              Baa    -1.5878   -65.099   -23.229   -21.715  0.0134  0.9970 -0.0767
     1 S(33)  Bbb    -1.4603   -59.872   -21.364   -19.971  0.9998 -0.0124  0.0142
              Bcc     3.0481   124.971    44.593    41.686 -0.0132  0.0769  0.9970
 
              Baa    -0.1819    13.166     4.698     4.392  0.7014 -0.6731 -0.2345
     2 O(17)  Bbb    -0.1599    11.571     4.129     3.860  0.7127  0.6608  0.2352
              Bcc     0.3419   -24.737    -8.827    -8.251 -0.0034 -0.3321  0.9432
 
              Baa    -0.8393    60.730    21.670    20.257 -0.1709  0.9845 -0.0385
     3 O(17)  Bbb    -0.8292    59.999    21.409    20.013  0.9839  0.1684 -0.0598
              Bcc     1.6685  -120.729   -43.079   -40.271  0.0524  0.0481  0.9975
 
              Baa    -0.0115    -6.113    -2.181    -2.039  0.0479 -0.3533  0.9343
     4 H(1)   Bbb    -0.0057    -3.049    -1.088    -1.017  0.9176 -0.3540 -0.1810
              Bcc     0.0172     9.162     3.269     3.056  0.3947  0.8659  0.3072
 

 ---------------------------------------------------------------------------------

 1\1\GINC-QCEXNOD57\SP\UB3LYP\6-311+G(3df)\H1O2S1(2)\ROOT\16-Jul-2026\0
 \\#sp b3lyp/6-311+G(3df)\\single point of HOSO\\0,2\S,0,-0.14317,-0.46
 9675,0.026424\O,0,1.328478,0.256099,-0.071462\O,0,-1.208263,0.543268,-
 0.033893\H,0,1.336997,1.079861,0.596065\\Version=ES64L-G16RevA.03\Stat
 e=2-A\HF=-549.2877645\S2=0.755385\S2-1=0.\S2A=0.75002\RMSD=5.151e-09\D
 ipole=0.5335283,-0.0382937,0.4386161\Quadrupole=-1.9872675,1.3907722,0
 .5964953,2.4594645,1.1683585,1.2053292\PG=C01 [X(H1O2S1)]\\@


 This summer one third of the nation will be ill-housed
 ill-nourished and ill-clad. Only they call it a vacation.
 -- Jonas Salk
 Job cpu time:       0 days  0 hours  0 minutes 17.3 seconds.
 Elapsed time:       0 days  0 hours  0 minutes  9.3 seconds.
 File lengths (MBytes):  RWF=     16 Int=      0 D2E=      0 Chk=      2 Scr=      1
 Normal termination of Gaussian 16 at Thu Jul 16 14:38:03 2026.
