 Entering Gaussian System, Link 0=g16
 Initial command:
 /soft/g16.a03/g16/l1.exe "/scr/macias/296040.qcexmaster.qcexval.uv.es_vib5_0.30/Gau-16408.inp" -scrdir="/scr/macias/296040.qcexmaster.qcexval.uv.es_vib5_0.30/"
 Entering Link 1 = /soft/g16.a03/g16/l1.exe PID=     16413.
  
 Copyright (c) 1988,1990,1992,1993,1995,1998,2003,2009,2016,
            Gaussian, Inc.  All Rights Reserved.
  
 This is part of the Gaussian(R) 16 program.  It is based on
 the Gaussian(R) 09 system (copyright 2009, Gaussian, Inc.),
 the Gaussian(R) 03 system (copyright 2003, Gaussian, Inc.),
 the Gaussian(R) 98 system (copyright 1998, Gaussian, Inc.),
 the Gaussian(R) 94 system (copyright 1995, Gaussian, Inc.),
 the Gaussian 92(TM) system (copyright 1992, Gaussian, Inc.),
 the Gaussian 90(TM) system (copyright 1990, Gaussian, Inc.),
 the Gaussian 88(TM) system (copyright 1988, Gaussian, Inc.),
 the Gaussian 86(TM) system (copyright 1986, Carnegie Mellon
 University), and the Gaussian 82(TM) system (copyright 1983,
 Carnegie Mellon University). Gaussian is a federally registered
 trademark of Gaussian, Inc.
  
 This software contains proprietary and confidential information,
 including trade secrets, belonging to Gaussian, Inc.
  
 This software is provided under written license and may be
 used, copied, transmitted, or stored only in accord with that
 written license.
  
 The following legend is applicable only to US Government
 contracts under FAR:
  
                    RESTRICTED RIGHTS LEGEND
  
 Use, reproduction and disclosure by the US Government is
 subject to restrictions as set forth in subparagraphs (a)
 and (c) of the Commercial Computer Software - Restricted
 Rights clause in FAR 52.227-19.
  
 Gaussian, Inc.
 340 Quinnipiac St., Bldg. 40, Wallingford CT 06492
  
  
 ---------------------------------------------------------------
 Warning -- This program may not be used in any manner that
 competes with the business of Gaussian, Inc. or will provide
 assistance to any competitor of Gaussian, Inc.  The licensee
 of this program is prohibited from giving any competitor of
 Gaussian, Inc. access to this program.  By using this program,
 the user acknowledges that Gaussian, Inc. is engaged in the
 business of creating and licensing software in the field of
 computational chemistry and represents and warrants to the
 licensee that it is not a competitor of Gaussian, Inc. and that
 it will not use this program in any manner prohibited above.
 ---------------------------------------------------------------
  

 Cite this work as:
 Gaussian 16, Revision A.03,
 M. J. Frisch, G. W. Trucks, H. B. Schlegel, G. E. Scuseria, 
 M. A. Robb, J. R. Cheeseman, G. Scalmani, V. Barone, 
 G. A. Petersson, H. Nakatsuji, X. Li, M. Caricato, A. V. Marenich, 
 J. Bloino, B. G. Janesko, R. Gomperts, B. Mennucci, H. P. Hratchian, 
 J. V. Ortiz, A. F. Izmaylov, J. L. Sonnenberg, D. Williams-Young, 
 F. Ding, F. Lipparini, F. Egidi, J. Goings, B. Peng, A. Petrone, 
 T. Henderson, D. Ranasinghe, V. G. Zakrzewski, J. Gao, N. Rega, 
 G. Zheng, W. Liang, M. Hada, M. Ehara, K. Toyota, R. Fukuda, 
 J. Hasegawa, M. Ishida, T. Nakajima, Y. Honda, O. Kitao, H. Nakai, 
 T. Vreven, K. Throssell, J. A. Montgomery, Jr., J. E. Peralta, 
 F. Ogliaro, M. J. Bearpark, J. J. Heyd, E. N. Brothers, K. N. Kudin, 
 V. N. Staroverov, T. A. Keith, R. Kobayashi, J. Normand, 
 K. Raghavachari, A. P. Rendell, J. C. Burant, S. S. Iyengar, 
 J. Tomasi, M. Cossi, J. M. Millam, M. Klene, C. Adamo, R. Cammi, 
 J. W. Ochterski, R. L. Martin, K. Morokuma, O. Farkas, 
 J. B. Foresman, and D. J. Fox, Gaussian, Inc., Wallingford CT, 2016.
 
 ******************************************
 Gaussian 16:  ES64L-G16RevA.03 25-Dec-2016
                16-Jul-2026 
 ******************************************
 %chk=opt_freq.chk
 %nproc=2
 Will use up to    2 processors via shared memory.
 %mem=2GB
 ----------------------
 #sp b3lyp/6-311+G(3df)
 ----------------------
 1/38=1,172=1/1;
 2/12=2,17=6,18=5,40=1/2;
 3/5=4,6=6,7=16,11=2,25=1,30=1,74=-5/1,2,3;
 4//1;
 5/5=2,38=5/2;
 6/7=2,8=2,9=2,10=2,28=1/1;
 99/5=1,9=1/99;
 --------------------
 single point of HOSO
 --------------------
 Symbolic Z-matrix:
 Charge =  0 Multiplicity = 2
 S                    -0.18817  -0.42068   0.01442 
 O                     1.34348   0.2441   -0.04546 
 O                    -1.10326   0.45227  -0.01489 
 H                     0.984     1.13886   0.26107 
 
                          Input orientation:                          
 ---------------------------------------------------------------------
 Center     Atomic      Atomic             Coordinates (Angstroms)
 Number     Number       Type             X           Y           Z
 ---------------------------------------------------------------------
      1         16           0       -0.188170   -0.420675    0.014424
      2          8           0        1.343478    0.244099   -0.045462
      3          8           0       -1.103263    0.452268   -0.014893
      4          1           0        0.983997    1.138861    0.261065
 ---------------------------------------------------------------------
                    Distance matrix (angstroms):
                    1          2          3          4
     1  S    0.000000
     2  O    1.670765   0.000000
     3  O    1.265023   2.455771   0.000000
     4  H    1.966459   1.011822   2.214547   0.000000
 Stoichiometry    HO2S(2)
 Framework group  C1[X(HO2S)]
 Deg. of freedom     6
 Full point group                 C1      NOp   1
 Largest Abelian subgroup         C1      NOp   1
 Largest concise Abelian subgroup C1      NOp   1
                         Standard orientation:                         
 ---------------------------------------------------------------------
 Center     Atomic      Atomic             Coordinates (Angstroms)
 Number     Number       Type             X           Y           Z
 ---------------------------------------------------------------------
      1         16           0       -0.206695   -0.409668    0.017385
      2          8           0        1.357811    0.173825   -0.040160
      3          8           0       -1.074892    0.509349   -0.026475
      4          1           0        1.043762    1.089296    0.254918
 ---------------------------------------------------------------------
 Rotational constants (GHZ):          44.9093234           9.9967865           8.2038431
 Standard basis: 6-311+G(3df) (5D, 7F)
 There are   146 symmetry adapted cartesian basis functions of A   symmetry.
 There are   128 symmetry adapted basis functions of A   symmetry.
   128 basis functions,   193 primitive gaussians,   146 cartesian basis functions
    17 alpha electrons       16 beta electrons
       nuclear repulsion energy       118.2774693366 Hartrees.
 NAtoms=    4 NActive=    4 NUniq=    4 SFac= 1.00D+00 NAtFMM=   60 NAOKFM=F Big=F
 Integral buffers will be    131072 words long.
 Raffenetti 2 integral format.
 Two-electron integral symmetry is turned on.
 One-electron integrals computed using PRISM.
 NBasis=   128 RedAO= T EigKep=  5.71D-04  NBF=   128
 NBsUse=   128 1.00D-06 EigRej= -1.00D+00 NBFU=   128
 ExpMin= 4.05D-02 ExpMax= 9.34D+04 ExpMxC= 3.17D+03 IAcc=3 IRadAn=         5 AccDes= 0.00D+00
 Harris functional with IExCor=  402 and IRadAn=       5 diagonalized for initial guess.
 HarFok:  IExCor=  402 AccDes= 0.00D+00 IRadAn=         5 IDoV= 1 UseB2=F ITyADJ=14
 ICtDFT=  3500011 ScaDFX=  1.000000  1.000000  1.000000  1.000000
 FoFCou: FMM=F IPFlag=           0 FMFlag=      100000 FMFlg1=           0
         NFxFlg=           0 DoJE=T BraDBF=F KetDBF=T FulRan=T
         wScrn=  0.000000 ICntrl=       500 IOpCl=  0 I1Cent=   200000004 NGrid=           0
         NMat0=    1 NMatS0=      1 NMatT0=    0 NMatD0=    1 NMtDS0=    0 NMtDT0=    0
 Petite list used in FoFCou.
 Initial guess <Sx>= 0.0000 <Sy>= 0.0000 <Sz>= 0.5000 <S**2>= 0.7500 S= 0.5000
 Keep R1 and R2 ints in memory in canonical form, NReq=70152943.
 Requested convergence on RMS density matrix=1.00D-08 within 128 cycles.
 Requested convergence on MAX density matrix=1.00D-06.
 Requested convergence on             energy=1.00D-06.
 No special actions if energy rises.
 SCF Done:  E(UB3LYP) =  -549.215397707     A.U. after   13 cycles
            NFock= 13  Conv=0.34D-08     -V/T= 2.0000
 <Sx>= 0.0000 <Sy>= 0.0000 <Sz>= 0.5000 <S**2>= 0.7546 S= 0.5023
 <L.S>= 0.000000000000E+00
 Annihilation of the first spin contaminant:
 S**2 before annihilation     0.7546,   after     0.7500

 **********************************************************************

            Population analysis using the SCF density.

 **********************************************************************

 Orbital symmetries:
 Alpha Orbitals:
       Occupied  (A) (A) (A) (A) (A) (A) (A) (A) (A) (A) (A) (A)
                 (A) (A) (A) (A) (A)
       Virtual   (A) (A) (A) (A) (A) (A) (A) (A) (A) (A) (A) (A)
                 (A) (A) (A) (A) (A) (A) (A) (A) (A) (A) (A) (A)
                 (A) (A) (A) (A) (A) (A) (A) (A) (A) (A) (A) (A)
                 (A) (A) (A) (A) (A) (A) (A) (A) (A) (A) (A) (A)
                 (A) (A) (A) (A) (A) (A) (A) (A) (A) (A) (A) (A)
                 (A) (A) (A) (A) (A) (A) (A) (A) (A) (A) (A) (A)
                 (A) (A) (A) (A) (A) (A) (A) (A) (A) (A) (A) (A)
                 (A) (A) (A) (A) (A) (A) (A) (A) (A) (A) (A) (A)
                 (A) (A) (A) (A) (A) (A) (A) (A) (A) (A) (A) (A)
                 (A) (A) (A)
 Beta  Orbitals:
       Occupied  (A) (A) (A) (A) (A) (A) (A) (A) (A) (A) (A) (A)
                 (A) (A) (A) (A)
       Virtual   (A) (A) (A) (A) (A) (A) (A) (A) (A) (A) (A) (A)
                 (A) (A) (A) (A) (A) (A) (A) (A) (A) (A) (A) (A)
                 (A) (A) (A) (A) (A) (A) (A) (A) (A) (A) (A) (A)
                 (A) (A) (A) (A) (A) (A) (A) (A) (A) (A) (A) (A)
                 (A) (A) (A) (A) (A) (A) (A) (A) (A) (A) (A) (A)
                 (A) (A) (A) (A) (A) (A) (A) (A) (A) (A) (A) (A)
                 (A) (A) (A) (A) (A) (A) (A) (A) (A) (A) (A) (A)
                 (A) (A) (A) (A) (A) (A) (A) (A) (A) (A) (A) (A)
                 (A) (A) (A) (A) (A) (A) (A) (A) (A) (A) (A) (A)
                 (A) (A) (A) (A)
 The electronic state is 2-A.
 Alpha  occ. eigenvalues --  -88.95827 -19.18465 -19.16486  -8.04109  -6.00399
 Alpha  occ. eigenvalues --   -6.00165  -5.99877  -1.21243  -1.06011  -0.66242
 Alpha  occ. eigenvalues --   -0.54107  -0.52991  -0.52333  -0.45278  -0.38760
 Alpha  occ. eigenvalues --   -0.35403  -0.20614
 Alpha virt. eigenvalues --   -0.01446   0.00818   0.02669   0.03834   0.04588
 Alpha virt. eigenvalues --    0.09155   0.11710   0.14561   0.16604   0.17260
 Alpha virt. eigenvalues --    0.18521   0.19932   0.23723   0.24678   0.24951
 Alpha virt. eigenvalues --    0.27900   0.29315   0.30052   0.33149   0.33952
 Alpha virt. eigenvalues --    0.34807   0.44127   0.49129   0.64517   0.73215
 Alpha virt. eigenvalues --    0.73404   0.78586   0.79567   0.84208   0.84746
 Alpha virt. eigenvalues --    0.87833   0.90540   0.90738   0.95569   0.97923
 Alpha virt. eigenvalues --    1.00146   1.01490   1.02101   1.07833   1.12632
 Alpha virt. eigenvalues --    1.18786   1.23594   1.26752   1.33211   1.34954
 Alpha virt. eigenvalues --    1.41545   1.57438   1.59573   1.73227   1.76481
 Alpha virt. eigenvalues --    1.84555   1.91021   1.95951   2.00244   2.02332
 Alpha virt. eigenvalues --    2.05973   2.25203   2.44556   2.48840   3.29085
 Alpha virt. eigenvalues --    3.32052   3.34833   3.40992   3.42789   3.48648
 Alpha virt. eigenvalues --    3.54494   3.55704   3.65430   3.76554   4.44457
 Alpha virt. eigenvalues --    4.57213   4.68055   4.71967   4.73848   4.90434
 Alpha virt. eigenvalues --    4.92684   4.93557   4.94787   4.95801   4.97209
 Alpha virt. eigenvalues --    5.01226   5.05447   5.08199   5.17042   5.25806
 Alpha virt. eigenvalues --    5.34339   5.36963   5.43264   5.46967   5.63835
 Alpha virt. eigenvalues --    5.78810   5.84041   6.24432   6.35677   8.85773
 Alpha virt. eigenvalues --   14.19879  14.22418  14.23112  14.27438  14.29782
 Alpha virt. eigenvalues --   14.30605  14.38858  14.41360  14.54586  14.65223
 Alpha virt. eigenvalues --   17.28267  17.53642  18.23283  49.90133  50.14607
 Alpha virt. eigenvalues --  190.00522
  Beta  occ. eigenvalues --  -88.95438 -19.18160 -19.15690  -8.03744  -6.00180
  Beta  occ. eigenvalues --   -5.99691  -5.98898  -1.19998  -1.05302  -0.63868
  Beta  occ. eigenvalues --   -0.52867  -0.52126  -0.49141  -0.44130  -0.36573
  Beta  occ. eigenvalues --   -0.34011
  Beta virt. eigenvalues --   -0.08742  -0.01127   0.01233   0.03122   0.04389
  Beta virt. eigenvalues --    0.05183   0.09506   0.12031   0.14823   0.17009
  Beta virt. eigenvalues --    0.17483   0.18926   0.20173   0.23914   0.24950
  Beta virt. eigenvalues --    0.26112   0.28347   0.29966   0.31201   0.34028
  Beta virt. eigenvalues --    0.34254   0.36717   0.44602   0.49314   0.65055
  Beta virt. eigenvalues --    0.73779   0.74085   0.79619   0.80045   0.84738
  Beta virt. eigenvalues --    0.85451   0.89623   0.90935   0.92113   0.96135
  Beta virt. eigenvalues --    0.98665   1.01343   1.01897   1.04043   1.08096
  Beta virt. eigenvalues --    1.13756   1.19579   1.23970   1.27013   1.34359
  Beta virt. eigenvalues --    1.35979   1.41841   1.61300   1.61840   1.75067
  Beta virt. eigenvalues --    1.78002   1.85306   1.92542   1.96820   2.00512
  Beta virt. eigenvalues --    2.05208   2.06368   2.25684   2.44949   2.49802
  Beta virt. eigenvalues --    3.30263   3.33661   3.36596   3.41742   3.43423
  Beta virt. eigenvalues --    3.49577   3.55589   3.57177   3.65757   3.77298
  Beta virt. eigenvalues --    4.45272   4.57831   4.68143   4.73248   4.74726
  Beta virt. eigenvalues --    4.91316   4.93669   4.94681   4.95631   4.96971
  Beta virt. eigenvalues --    4.98430   5.01855   5.08200   5.08706   5.18082
  Beta virt. eigenvalues --    5.26936   5.35019   5.37679   5.44075   5.47682
  Beta virt. eigenvalues --    5.64250   5.79294   5.85733   6.24923   6.36072
  Beta virt. eigenvalues --    8.86291  14.21424  14.24840  14.25757  14.28656
  Beta virt. eigenvalues --   14.30681  14.31905  14.39196  14.44352  14.55084
  Beta virt. eigenvalues --   14.66516  17.29958  17.53936  18.23620  49.90439
  Beta virt. eigenvalues --   50.15386 190.00875
          Condensed to atoms (all electrons):
               1          2          3          4
     1  S   15.620280  -0.037290  -0.099334   0.010859
     2  O   -0.037290   8.475913   0.013182   0.196054
     3  O   -0.099334   0.013182   8.403164  -0.002389
     4  H    0.010859   0.196054  -0.002389   0.338480
          Atomic-Atomic Spin Densities.
               1          2          3          4
     1  S    1.148796  -0.117396  -0.279977  -0.003942
     2  O   -0.117396   0.157300   0.024793  -0.005309
     3  O   -0.279977   0.024793   0.447396   0.000305
     4  H   -0.003942  -0.005309   0.000305   0.009561
 Mulliken charges and spin densities:
               1          2
     1  S    0.505485   0.747481
     2  O   -0.647859   0.059387
     3  O   -0.314623   0.192517
     4  H    0.456996   0.000615
 Sum of Mulliken charges =  -0.00000   1.00000
 Mulliken charges and spin densities with hydrogens summed into heavy atoms:
               1          2
     1  S    0.505485   0.747481
     2  O   -0.190862   0.060002
     3  O   -0.314623   0.192517
 Electronic spatial extent (au):  <R**2>=            168.1934
 Charge=             -0.0000 electrons
 Dipole moment (field-independent basis, Debye):
    X=             -0.0628    Y=              0.4607    Z=              0.4472  Tot=              0.6451
 Quadrupole moment (field-independent basis, Debye-Ang):
   XX=            -26.7712   YY=            -21.9013   ZZ=            -23.6457
   XY=              2.4434   XZ=              0.4533   YZ=              0.7660
 Traceless Quadrupole moment (field-independent basis, Debye-Ang):
   XX=             -2.6651   YY=              2.2048   ZZ=              0.4603
   XY=              2.4434   XZ=              0.4533   YZ=              0.7660
 Octapole moment (field-independent basis, Debye-Ang**2):
  XXX=             -3.6262  YYY=              5.0289  ZZZ=             -0.2086  XYY=              3.0701
  XXY=             -0.2990  XXZ=              0.4834  XZZ=             -0.8169  YZZ=              1.6622
  YYZ=              0.7989  XYZ=              0.7793
 Hexadecapole moment (field-independent basis, Debye-Ang**3):
 XXXX=           -137.3629 YYYY=            -48.3761 ZZZZ=            -26.1699 XXXY=              2.8840
 XXXZ=              0.3808 YYYX=              2.9075 YYYZ=              0.9833 ZZZX=              0.2459
 ZZZY=              0.5577 XXYY=            -27.5981 XXZZ=            -26.3461 YYZZ=            -13.4062
 XXYZ=              1.0431 YYXZ=              0.7638 ZZXY=             -0.0904
 N-N= 1.182774693366D+02 E-N=-1.541020186011D+03  KE= 5.492308067954D+02
                          Isotropic Fermi Contact Couplings
        Atom                 a.u.       MegaHertz       Gauss      10(-4) cm-1
     1  S(33)              0.05251      18.03693       6.43603       6.01647
     2  O(17)              0.01559      -9.44762      -3.37115      -3.15139
     3  O(17)              0.03023     -18.32245      -6.53791      -6.11171
     4  H(1)               0.00029       1.29769       0.46305       0.43286
 --------------------------------------------------------
       Center         ----  Spin Dipole Couplings  ----
                      3XX-RR        3YY-RR        3ZZ-RR
 --------------------------------------------------------
     1   Atom       -1.467144     -1.595732      3.062877
     2   Atom       -0.251122     -0.237070      0.488191
     3   Atom       -0.632727     -0.633621      1.266348
     4   Atom       -0.004408      0.018632     -0.014224
 --------------------------------------------------------
                        XY            XZ            YZ
 --------------------------------------------------------
     1   Atom       -0.016363      0.037696      0.301470
     2   Atom        0.010086      0.012007     -0.099129
     3   Atom       -0.014093      0.065665      0.082588
     4   Atom        0.001400      0.000046      0.004600
 --------------------------------------------------------


 ---------------------------------------------------------------------------------
              Anisotropic Spin Dipole Couplings in Principal Axis System
 ---------------------------------------------------------------------------------

       Atom             a.u.   MegaHertz   Gauss  10(-4) cm-1        Axes

              Baa    -1.6175   -66.316   -23.663   -22.121  0.1240  0.9902 -0.0648
     1 S(33)  Bbb    -1.4651   -60.068   -21.434   -20.036  0.9923 -0.1243  0.0000
              Bcc     3.0826   126.384    45.097    42.157  0.0080  0.0643  0.9979
 
              Baa    -0.2624    18.989     6.776     6.334  0.7205 -0.6858 -0.1021
     2 O(17)  Bbb    -0.2392    17.310     6.177     5.774  0.6933  0.7155  0.0861
              Bcc     0.5016   -36.299   -12.952   -12.108  0.0140 -0.1328  0.9910
 
              Baa    -0.6530    47.253    16.861    15.762  0.6828  0.7286 -0.0547
     3 O(17)  Bbb    -0.6191    44.799    15.985    14.943  0.7299 -0.6836  0.0045
              Bcc     1.2721   -92.052   -32.846   -30.705  0.0341  0.0430  0.9985
 
              Baa    -0.0149    -7.928    -2.829    -2.644  0.0140 -0.1366  0.9905
     4 H(1)   Bbb    -0.0045    -2.394    -0.854    -0.799  0.9982 -0.0561 -0.0218
              Bcc     0.0193    10.322     3.683     3.443  0.0586  0.9890  0.1356
 

 ---------------------------------------------------------------------------------

 1\1\GINC-QCEXNOD57\SP\UB3LYP\6-311+G(3df)\H1O2S1(2)\ROOT\16-Jul-2026\0
 \\#sp b3lyp/6-311+G(3df)\\single point of HOSO\\0,2\S,0,-0.18817,-0.42
 0675,0.014424\O,0,1.343478,0.244099,-0.045462\O,0,-1.103263,0.452268,-
 0.014893\H,0,0.983997,1.138861,0.261065\\Version=ES64L-G16RevA.03\Stat
 e=2-A\HF=-549.2153977\S2=0.754644\S2-1=0.\S2A=0.750013\RMSD=3.388e-09\
 Dipole=-0.0330391,0.1778995,0.1779864\Quadrupole=-2.1566697,1.8061215,
 0.3505482,1.6187183,0.3387259,0.591703\PG=C01 [X(H1O2S1)]\\@


 THE WORLD IS MADE UP OF THE WILLS, THE WON'TS, AND THE CANT'S:
 THE WILLS DO EVERYTHING,
 THE WON'TS DO NOTHING,
 THE CAN'TS CAN'T DO ANYTHING.

                               -- FROM WALT DISNEY'S "BLACK HOLE"
 Job cpu time:       0 days  0 hours  0 minutes 15.6 seconds.
 Elapsed time:       0 days  0 hours  0 minutes  8.2 seconds.
 File lengths (MBytes):  RWF=     16 Int=      0 D2E=      0 Chk=      2 Scr=      1
 Normal termination of Gaussian 16 at Thu Jul 16 14:38:31 2026.
