 Entering Gaussian System, Link 0=g16
 Initial command:
 /soft/g16.a03/g16/l1.exe "/scr/macias/296013.qcexmaster.qcexval.uv.es_vib2_0.30/Gau-15161.inp" -scrdir="/scr/macias/296013.qcexmaster.qcexval.uv.es_vib2_0.30/"
 Entering Link 1 = /soft/g16.a03/g16/l1.exe PID=     15180.
  
 Copyright (c) 1988,1990,1992,1993,1995,1998,2003,2009,2016,
            Gaussian, Inc.  All Rights Reserved.
  
 This is part of the Gaussian(R) 16 program.  It is based on
 the Gaussian(R) 09 system (copyright 2009, Gaussian, Inc.),
 the Gaussian(R) 03 system (copyright 2003, Gaussian, Inc.),
 the Gaussian(R) 98 system (copyright 1998, Gaussian, Inc.),
 the Gaussian(R) 94 system (copyright 1995, Gaussian, Inc.),
 the Gaussian 92(TM) system (copyright 1992, Gaussian, Inc.),
 the Gaussian 90(TM) system (copyright 1990, Gaussian, Inc.),
 the Gaussian 88(TM) system (copyright 1988, Gaussian, Inc.),
 the Gaussian 86(TM) system (copyright 1986, Carnegie Mellon
 University), and the Gaussian 82(TM) system (copyright 1983,
 Carnegie Mellon University). Gaussian is a federally registered
 trademark of Gaussian, Inc.
  
 This software contains proprietary and confidential information,
 including trade secrets, belonging to Gaussian, Inc.
  
 This software is provided under written license and may be
 used, copied, transmitted, or stored only in accord with that
 written license.
  
 The following legend is applicable only to US Government
 contracts under FAR:
  
                    RESTRICTED RIGHTS LEGEND
  
 Use, reproduction and disclosure by the US Government is
 subject to restrictions as set forth in subparagraphs (a)
 and (c) of the Commercial Computer Software - Restricted
 Rights clause in FAR 52.227-19.
  
 Gaussian, Inc.
 340 Quinnipiac St., Bldg. 40, Wallingford CT 06492
  
  
 ---------------------------------------------------------------
 Warning -- This program may not be used in any manner that
 competes with the business of Gaussian, Inc. or will provide
 assistance to any competitor of Gaussian, Inc.  The licensee
 of this program is prohibited from giving any competitor of
 Gaussian, Inc. access to this program.  By using this program,
 the user acknowledges that Gaussian, Inc. is engaged in the
 business of creating and licensing software in the field of
 computational chemistry and represents and warrants to the
 licensee that it is not a competitor of Gaussian, Inc. and that
 it will not use this program in any manner prohibited above.
 ---------------------------------------------------------------
  

 Cite this work as:
 Gaussian 16, Revision A.03,
 M. J. Frisch, G. W. Trucks, H. B. Schlegel, G. E. Scuseria, 
 M. A. Robb, J. R. Cheeseman, G. Scalmani, V. Barone, 
 G. A. Petersson, H. Nakatsuji, X. Li, M. Caricato, A. V. Marenich, 
 J. Bloino, B. G. Janesko, R. Gomperts, B. Mennucci, H. P. Hratchian, 
 J. V. Ortiz, A. F. Izmaylov, J. L. Sonnenberg, D. Williams-Young, 
 F. Ding, F. Lipparini, F. Egidi, J. Goings, B. Peng, A. Petrone, 
 T. Henderson, D. Ranasinghe, V. G. Zakrzewski, J. Gao, N. Rega, 
 G. Zheng, W. Liang, M. Hada, M. Ehara, K. Toyota, R. Fukuda, 
 J. Hasegawa, M. Ishida, T. Nakajima, Y. Honda, O. Kitao, H. Nakai, 
 T. Vreven, K. Throssell, J. A. Montgomery, Jr., J. E. Peralta, 
 F. Ogliaro, M. J. Bearpark, J. J. Heyd, E. N. Brothers, K. N. Kudin, 
 V. N. Staroverov, T. A. Keith, R. Kobayashi, J. Normand, 
 K. Raghavachari, A. P. Rendell, J. C. Burant, S. S. Iyengar, 
 J. Tomasi, M. Cossi, J. M. Millam, M. Klene, C. Adamo, R. Cammi, 
 J. W. Ochterski, R. L. Martin, K. Morokuma, O. Farkas, 
 J. B. Foresman, and D. J. Fox, Gaussian, Inc., Wallingford CT, 2016.
 
 ******************************************
 Gaussian 16:  ES64L-G16RevA.03 25-Dec-2016
                16-Jul-2026 
 ******************************************
 %chk=opt_freq.chk
 %nproc=2
 Will use up to    2 processors via shared memory.
 %mem=2GB
 ----------------------
 #sp b3lyp/6-311+G(3df)
 ----------------------
 1/38=1,172=1/1;
 2/12=2,17=6,18=5,40=1/2;
 3/5=4,6=6,7=16,11=2,25=1,30=1,74=-5/1,2,3;
 4//1;
 5/5=2,38=5/2;
 6/7=2,8=2,9=2,10=2,28=1/1;
 99/5=1,9=1/99;
 --------------------
 single point of HOSO
 --------------------
 Symbolic Z-matrix:
 Charge =  0 Multiplicity = 2
 S                    -0.14017  -0.42368   0.00842 
 O                     1.41248   0.2021   -0.02446 
 O                    -1.29826   0.49727  -0.01189 
 H                     1.449     1.18386   0.10207 
 
                          Input orientation:                          
 ---------------------------------------------------------------------
 Center     Atomic      Atomic             Coordinates (Angstroms)
 Number     Number       Type             X           Y           Z
 ---------------------------------------------------------------------
      1         16           0       -0.140170   -0.423675    0.008424
      2          8           0        1.412478    0.202099   -0.024462
      3          8           0       -1.298263    0.497268   -0.011893
      4          1           0        1.448997    1.183861    0.102065
 ---------------------------------------------------------------------
                    Distance matrix (angstroms):
                    1          2          3          4
     1  S    0.000000
     2  O    1.674333   0.000000
     3  O    1.479773   2.726793   0.000000
     4  H    2.262386   0.990555   2.834049   0.000000
 Stoichiometry    HO2S(2)
 Framework group  C1[X(HO2S)]
 Deg. of freedom     6
 Full point group                 C1      NOp   1
 Largest Abelian subgroup         C1      NOp   1
 Largest concise Abelian subgroup C1      NOp   1
                         Standard orientation:                         
 ---------------------------------------------------------------------
 Center     Atomic      Atomic             Coordinates (Angstroms)
 Number     Number       Type             X           Y           Z
 ---------------------------------------------------------------------
      1         16           0       -0.140199   -0.424917    0.008445
      2          8           0        1.407085    0.214170   -0.021026
      3          8           0       -1.306080    0.486196   -0.009491
      4          1           0        1.435146    1.195751    0.109015
 ---------------------------------------------------------------------
 Rotational constants (GHZ):          43.3078890           8.1899899           6.8913617
 Standard basis: 6-311+G(3df) (5D, 7F)
 There are   146 symmetry adapted cartesian basis functions of A   symmetry.
 There are   128 symmetry adapted basis functions of A   symmetry.
   128 basis functions,   193 primitive gaussians,   146 cartesian basis functions
    17 alpha electrons       16 beta electrons
       nuclear repulsion energy       108.1586275818 Hartrees.
 NAtoms=    4 NActive=    4 NUniq=    4 SFac= 1.00D+00 NAtFMM=   60 NAOKFM=F Big=F
 Integral buffers will be    131072 words long.
 Raffenetti 2 integral format.
 Two-electron integral symmetry is turned on.
 One-electron integrals computed using PRISM.
 NBasis=   128 RedAO= T EigKep=  8.92D-04  NBF=   128
 NBsUse=   128 1.00D-06 EigRej= -1.00D+00 NBFU=   128
 ExpMin= 4.05D-02 ExpMax= 9.34D+04 ExpMxC= 3.17D+03 IAcc=3 IRadAn=         5 AccDes= 0.00D+00
 Harris functional with IExCor=  402 and IRadAn=       5 diagonalized for initial guess.
 HarFok:  IExCor=  402 AccDes= 0.00D+00 IRadAn=         5 IDoV= 1 UseB2=F ITyADJ=14
 ICtDFT=  3500011 ScaDFX=  1.000000  1.000000  1.000000  1.000000
 FoFCou: FMM=F IPFlag=           0 FMFlag=      100000 FMFlg1=           0
         NFxFlg=           0 DoJE=T BraDBF=F KetDBF=T FulRan=T
         wScrn=  0.000000 ICntrl=       500 IOpCl=  0 I1Cent=   200000004 NGrid=           0
         NMat0=    1 NMatS0=      1 NMatT0=    0 NMatD0=    1 NMtDS0=    0 NMtDT0=    0
 Petite list used in FoFCou.
 Initial guess <Sx>= 0.0000 <Sy>= 0.0000 <Sz>= 0.5000 <S**2>= 0.7500 S= 0.5000
 Keep R1 and R2 ints in memory in canonical form, NReq=70152619.
 Requested convergence on RMS density matrix=1.00D-08 within 128 cycles.
 Requested convergence on MAX density matrix=1.00D-06.
 Requested convergence on             energy=1.00D-06.
 No special actions if energy rises.
 SCF Done:  E(UB3LYP) =  -549.288641412     A.U. after   14 cycles
            NFock= 14  Conv=0.33D-08     -V/T= 2.0020
 <Sx>= 0.0000 <Sy>= 0.0000 <Sz>= 0.5000 <S**2>= 0.7554 S= 0.5027
 <L.S>= 0.000000000000E+00
 Annihilation of the first spin contaminant:
 S**2 before annihilation     0.7554,   after     0.7500

 **********************************************************************

            Population analysis using the SCF density.

 **********************************************************************

 Orbital symmetries:
 Alpha Orbitals:
       Occupied  (A) (A) (A) (A) (A) (A) (A) (A) (A) (A) (A) (A)
                 (A) (A) (A) (A) (A)
       Virtual   (A) (A) (A) (A) (A) (A) (A) (A) (A) (A) (A) (A)
                 (A) (A) (A) (A) (A) (A) (A) (A) (A) (A) (A) (A)
                 (A) (A) (A) (A) (A) (A) (A) (A) (A) (A) (A) (A)
                 (A) (A) (A) (A) (A) (A) (A) (A) (A) (A) (A) (A)
                 (A) (A) (A) (A) (A) (A) (A) (A) (A) (A) (A) (A)
                 (A) (A) (A) (A) (A) (A) (A) (A) (A) (A) (A) (A)
                 (A) (A) (A) (A) (A) (A) (A) (A) (A) (A) (A) (A)
                 (A) (A) (A) (A) (A) (A) (A) (A) (A) (A) (A) (A)
                 (A) (A) (A) (A) (A) (A) (A) (A) (A) (A) (A) (A)
                 (A) (A) (A)
 Beta  Orbitals:
       Occupied  (A) (A) (A) (A) (A) (A) (A) (A) (A) (A) (A) (A)
                 (A) (A) (A) (A)
       Virtual   (A) (A) (A) (A) (A) (A) (A) (A) (A) (A) (A) (A)
                 (A) (A) (A) (A) (A) (A) (A) (A) (A) (A) (A) (A)
                 (A) (A) (A) (A) (A) (A) (A) (A) (A) (A) (A) (A)
                 (A) (A) (A) (A) (A) (A) (A) (A) (A) (A) (A) (A)
                 (A) (A) (A) (A) (A) (A) (A) (A) (A) (A) (A) (A)
                 (A) (A) (A) (A) (A) (A) (A) (A) (A) (A) (A) (A)
                 (A) (A) (A) (A) (A) (A) (A) (A) (A) (A) (A) (A)
                 (A) (A) (A) (A) (A) (A) (A) (A) (A) (A) (A) (A)
                 (A) (A) (A) (A) (A) (A) (A) (A) (A) (A) (A) (A)
                 (A) (A) (A) (A)
 The electronic state is 2-A.
 Alpha  occ. eigenvalues --  -88.98286 -19.19782 -19.17051  -8.05532  -6.01919
 Alpha  occ. eigenvalues --   -6.01670  -6.01365  -1.10405  -1.04888  -0.70569
 Alpha  occ. eigenvalues --   -0.54293  -0.47390  -0.47008  -0.41975  -0.39118
 Alpha  occ. eigenvalues --   -0.34590  -0.23321
 Alpha virt. eigenvalues --   -0.03804  -0.00119   0.01045   0.03536   0.04651
 Alpha virt. eigenvalues --    0.08172   0.10981   0.14597   0.16290   0.17177
 Alpha virt. eigenvalues --    0.18644   0.21004   0.22840   0.24824   0.25030
 Alpha virt. eigenvalues --    0.27024   0.28506   0.29819   0.30882   0.31425
 Alpha virt. eigenvalues --    0.33094   0.45015   0.46789   0.58628   0.71221
 Alpha virt. eigenvalues --    0.73173   0.76651   0.82830   0.86353   0.87971
 Alpha virt. eigenvalues --    0.89560   0.90705   0.91493   0.92890   0.95248
 Alpha virt. eigenvalues --    0.98968   1.00964   1.02503   1.05985   1.07738
 Alpha virt. eigenvalues --    1.12011   1.14259   1.24279   1.30263   1.33509
 Alpha virt. eigenvalues --    1.35410   1.57348   1.58325   1.64929   1.67760
 Alpha virt. eigenvalues --    1.79579   1.91160   1.93446   1.99965   2.02300
 Alpha virt. eigenvalues --    2.10607   2.23461   2.25750   2.35339   3.29062
 Alpha virt. eigenvalues --    3.33059   3.35180   3.39241   3.40416   3.45349
 Alpha virt. eigenvalues --    3.49754   3.53413   3.58404   3.60651   4.43103
 Alpha virt. eigenvalues --    4.47567   4.50082   4.56848   4.79564   4.88615
 Alpha virt. eigenvalues --    4.92570   4.95028   4.95791   4.98229   4.98477
 Alpha virt. eigenvalues --    4.99421   5.01091   5.04157   5.08547   5.12997
 Alpha virt. eigenvalues --    5.29453   5.33345   5.37723   5.43765   5.53435
 Alpha virt. eigenvalues --    5.63063   5.72132   5.88249   6.28145   8.59322
 Alpha virt. eigenvalues --   14.19039  14.21820  14.22193  14.26183  14.26749
 Alpha virt. eigenvalues --   14.31378  14.34059  14.35924  14.43257  14.57718
 Alpha virt. eigenvalues --   17.21513  17.39113  17.74092  49.86896  49.96074
 Alpha virt. eigenvalues --  189.53220
  Beta  occ. eigenvalues --  -88.97887 -19.19452 -19.16035  -8.05169  -6.01705
  Beta  occ. eigenvalues --   -6.01182  -6.00391  -1.09166  -1.03549  -0.68489
  Beta  occ. eigenvalues --   -0.53220  -0.46756  -0.43157  -0.40694  -0.35476
  Beta  occ. eigenvalues --   -0.33435
  Beta virt. eigenvalues --   -0.11561  -0.03024   0.00551   0.01501   0.03723
  Beta virt. eigenvalues --    0.04882   0.08344   0.11212   0.14760   0.16721
  Beta virt. eigenvalues --    0.17459   0.19560   0.21108   0.23203   0.24883
  Beta virt. eigenvalues --    0.26164   0.27757   0.28655   0.31171   0.31676
  Beta virt. eigenvalues --    0.32763   0.33401   0.45607   0.46904   0.59120
  Beta virt. eigenvalues --    0.71826   0.73549   0.77543   0.83595   0.87151
  Beta virt. eigenvalues --    0.88476   0.90200   0.91366   0.93115   0.94512
  Beta virt. eigenvalues --    0.96364   0.99149   1.02844   1.03320   1.06424
  Beta virt. eigenvalues --    1.08183   1.13414   1.14726   1.25865   1.31039
  Beta virt. eigenvalues --    1.33860   1.35672   1.60139   1.60813   1.66280
  Beta virt. eigenvalues --    1.69621   1.80408   1.92618   1.94557   2.02207
  Beta virt. eigenvalues --    2.02368   2.11005   2.24087   2.26138   2.36011
  Beta virt. eigenvalues --    3.30058   3.34946   3.37676   3.40160   3.41473
  Beta virt. eigenvalues --    3.47969   3.50976   3.53991   3.58826   3.61421
  Beta virt. eigenvalues --    4.43911   4.47913   4.51102   4.57247   4.80179
  Beta virt. eigenvalues --    4.89533   4.93804   4.96102   4.96632   4.99711
  Beta virt. eigenvalues --    5.01260   5.02059   5.02381   5.04967   5.09810
  Beta virt. eigenvalues --    5.14483   5.30143   5.33862   5.38693   5.44321
  Beta virt. eigenvalues --    5.54503   5.63448   5.74003   5.88944   6.28576
  Beta virt. eigenvalues --    8.59828  14.20428  14.24586  14.25464  14.28080
  Beta virt. eigenvalues --   14.28599  14.34550  14.35420  14.36610  14.43886
  Beta virt. eigenvalues --   14.59315  17.23199  17.39391  17.74404  49.87286
  Beta virt. eigenvalues --   49.97015 189.53581
          Condensed to atoms (all electrons):
               1          2          3          4
     1  S   15.440371  -0.066782   0.097261   0.019108
     2  O   -0.066782   8.469048   0.019673   0.188608
     3  O    0.097261   0.019673   8.252259  -0.003679
     4  H    0.019108   0.188608  -0.003679   0.329944
          Atomic-Atomic Spin Densities.
               1          2          3          4
     1  S    0.931238  -0.105822  -0.194315   0.001067
     2  O   -0.105822   0.164410   0.015302  -0.001844
     3  O   -0.194315   0.015302   0.478656  -0.001017
     4  H    0.001067  -0.001844  -0.001017  -0.001046
 Mulliken charges and spin densities:
               1          2
     1  S    0.510041   0.632167
     2  O   -0.610547   0.072046
     3  O   -0.365514   0.298626
     4  H    0.466020  -0.002840
 Sum of Mulliken charges =  -0.00000   1.00000
 Mulliken charges and spin densities with hydrogens summed into heavy atoms:
               1          2
     1  S    0.510041   0.632167
     2  O   -0.144527   0.069207
     3  O   -0.365514   0.298626
 Electronic spatial extent (au):  <R**2>=            190.8853
 Charge=             -0.0000 electrons
 Dipole moment (field-independent basis, Debye):
    X=              1.4489    Y=              0.4636    Z=              0.2343  Tot=              1.5392
 Quadrupole moment (field-independent basis, Debye-Ang):
   XX=            -26.7741   YY=            -21.1666   ZZ=            -24.1040
   XY=              3.9016   XZ=              0.3437   YZ=              0.3562
 Traceless Quadrupole moment (field-independent basis, Debye-Ang):
   XX=             -2.7592   YY=              2.8483   ZZ=             -0.0891
   XY=              3.9016   XZ=              0.3437   YZ=              0.3562
 Octapole moment (field-independent basis, Debye-Ang**2):
  XXX=              2.7473  YYY=              5.1795  ZZZ=             -0.0229  XYY=              5.2091
  XXY=              2.4136  XXZ=              0.5349  XZZ=             -0.2334  YZZ=              1.0003
  YYZ=              0.4254  XYZ=              0.5013
 Hexadecapole moment (field-independent basis, Debye-Ang**3):
 XXXX=           -162.3700 YYYY=            -47.0324 ZZZZ=            -25.9556 XXXY=              8.9906
 XXXZ=              0.8200 YYYX=              7.3781 YYYZ=              0.5901 ZZZX=              0.1717
 ZZZY=              0.2311 XXYY=            -28.1350 XXZZ=            -31.2572 YYZZ=            -13.3535
 XXYZ=              0.7954 YYXZ=              0.5913 ZZXY=              0.3451
 N-N= 1.081586275818D+02 E-N=-1.520236323677D+03  KE= 5.481953101223D+02
                          Isotropic Fermi Contact Couplings
        Atom                 a.u.       MegaHertz       Gauss      10(-4) cm-1
     1  S(33)              0.06246      21.45174       7.65451       7.15553
     2  O(17)              0.01541      -9.34211      -3.33350      -3.11619
     3  O(17)              0.03503     -21.23509      -7.57721      -7.08327
     4  H(1)              -0.00164      -7.31907      -2.61163      -2.44138
 --------------------------------------------------------
       Center         ----  Spin Dipole Couplings  ----
                      3XX-RR        3YY-RR        3ZZ-RR
 --------------------------------------------------------
     1   Atom       -1.505504     -1.640206      3.145710
     2   Atom       -0.282858     -0.263192      0.546051
     3   Atom       -0.794478     -0.801695      1.596173
     4   Atom       -0.011415      0.022223     -0.010808
 --------------------------------------------------------
                        XY            XZ            YZ
 --------------------------------------------------------
     1   Atom        0.008299     -0.022371      0.107890
     2   Atom        0.018682     -0.006159     -0.057263
     3   Atom       -0.003453      0.044036      0.031936
     4   Atom        0.008384      0.000601      0.002022
 --------------------------------------------------------


 ---------------------------------------------------------------------------------
              Anisotropic Spin Dipole Couplings in Principal Axis System
 ---------------------------------------------------------------------------------

       Atom             a.u.   MegaHertz   Gauss  10(-4) cm-1        Axes

              Baa    -1.6432   -67.370   -24.039   -22.472 -0.0638  0.9977 -0.0228
     1 S(33)  Bbb    -1.5050   -61.706   -22.018   -20.583  0.9979  0.0639  0.0033
              Bcc     3.1482   129.075    46.057    43.055 -0.0048  0.0225  0.9997
 
              Baa    -0.2949    21.339     7.614     7.118  0.8354 -0.5487 -0.0312
     2 O(17)  Bbb    -0.2553    18.470     6.590     6.161  0.5495  0.8331  0.0638
              Bcc     0.5501   -39.808   -14.205   -13.279 -0.0090 -0.0704  0.9975
 
              Baa    -0.8040    58.176    20.759    19.406  0.4207  0.9070 -0.0198
     3 O(17)  Bbb    -0.7934    57.411    20.486    19.150  0.9070 -0.4210 -0.0111
              Bcc     1.5974  -115.587   -41.244   -38.556  0.0184  0.0133  0.9997
 
              Baa    -0.0134    -7.147    -2.550    -2.384  0.9728 -0.2262 -0.0490
     4 H(1)   Bbb    -0.0109    -5.831    -2.081    -1.945  0.0341 -0.0694  0.9970
              Bcc     0.0243    12.978     4.631     4.329  0.2289  0.9716  0.0598
 

 ---------------------------------------------------------------------------------

 1\1\GINC-QCEXNOD57\SP\UB3LYP\6-311+G(3df)\H1O2S1(2)\ROOT\16-Jul-2026\0
 \\#sp b3lyp/6-311+G(3df)\\single point of HOSO\\0,2\S,0,-0.14017,-0.42
 3675,0.008424\O,0,1.412478,0.202099,-0.024462\O,0,-1.298263,0.497268,-
 0.011893\H,0,1.448997,1.183861,0.102065\\Version=ES64L-G16RevA.03\Stat
 e=2-A\HF=-549.2886414\S2=0.755426\S2-1=0.\S2A=0.750021\RMSD=3.316e-09\
 Dipole=0.5716324,0.1778425,0.0911289\Quadrupole=-2.0012873,2.0697537,-
 0.0684664,2.9369483,0.2488625,0.2528266\PG=C01 [X(H1O2S1)]\\@


 THE SCIENTIFIC THEORIST IS NOT TO BE ENVIED. FOR NATURE, OR MORE
 PRECISELY EXPERIMENT, IS AN INEXORABLE AND NOT VERY FRIENDLY JUDGE OF HIS
 WORK.  IT NEVER SAYS "YES" TO A THEORY. IN THE MOST FAVORABLE CASES
 IT SAYS "MAYBE", AND IN THE GREAT MAJORITY OF CASES SIMPLY "NO"...
 PROBABLY EVERY THEORY WILL SOME DAY EXPERIENCE ITS "NO" - MOST
 THEORIES, SOON AFTER CONCEPTION.  -- A.EINSTEIN, NOV 11, 1922.
 Job cpu time:       0 days  0 hours  0 minutes 16.3 seconds.
 Elapsed time:       0 days  0 hours  0 minutes  8.5 seconds.
 File lengths (MBytes):  RWF=     16 Int=      0 D2E=      0 Chk=      2 Scr=      1
 Normal termination of Gaussian 16 at Thu Jul 16 14:38:13 2026.
