 Entering Gaussian System, Link 0=g16
 Initial command:
 /soft/g16.a03/g16/l1.exe "/scr/macias/296015.qcexmaster.qcexval.uv.es_vib3_-0.10/Gau-15208.inp" -scrdir="/scr/macias/296015.qcexmaster.qcexval.uv.es_vib3_-0.10/"
 Entering Link 1 = /soft/g16.a03/g16/l1.exe PID=     15216.
  
 Copyright (c) 1988,1990,1992,1993,1995,1998,2003,2009,2016,
            Gaussian, Inc.  All Rights Reserved.
  
 This is part of the Gaussian(R) 16 program.  It is based on
 the Gaussian(R) 09 system (copyright 2009, Gaussian, Inc.),
 the Gaussian(R) 03 system (copyright 2003, Gaussian, Inc.),
 the Gaussian(R) 98 system (copyright 1998, Gaussian, Inc.),
 the Gaussian(R) 94 system (copyright 1995, Gaussian, Inc.),
 the Gaussian 92(TM) system (copyright 1992, Gaussian, Inc.),
 the Gaussian 90(TM) system (copyright 1990, Gaussian, Inc.),
 the Gaussian 88(TM) system (copyright 1988, Gaussian, Inc.),
 the Gaussian 86(TM) system (copyright 1986, Carnegie Mellon
 University), and the Gaussian 82(TM) system (copyright 1983,
 Carnegie Mellon University). Gaussian is a federally registered
 trademark of Gaussian, Inc.
  
 This software contains proprietary and confidential information,
 including trade secrets, belonging to Gaussian, Inc.
  
 This software is provided under written license and may be
 used, copied, transmitted, or stored only in accord with that
 written license.
  
 The following legend is applicable only to US Government
 contracts under FAR:
  
                    RESTRICTED RIGHTS LEGEND
  
 Use, reproduction and disclosure by the US Government is
 subject to restrictions as set forth in subparagraphs (a)
 and (c) of the Commercial Computer Software - Restricted
 Rights clause in FAR 52.227-19.
  
 Gaussian, Inc.
 340 Quinnipiac St., Bldg. 40, Wallingford CT 06492
  
  
 ---------------------------------------------------------------
 Warning -- This program may not be used in any manner that
 competes with the business of Gaussian, Inc. or will provide
 assistance to any competitor of Gaussian, Inc.  The licensee
 of this program is prohibited from giving any competitor of
 Gaussian, Inc. access to this program.  By using this program,
 the user acknowledges that Gaussian, Inc. is engaged in the
 business of creating and licensing software in the field of
 computational chemistry and represents and warrants to the
 licensee that it is not a competitor of Gaussian, Inc. and that
 it will not use this program in any manner prohibited above.
 ---------------------------------------------------------------
  

 Cite this work as:
 Gaussian 16, Revision A.03,
 M. J. Frisch, G. W. Trucks, H. B. Schlegel, G. E. Scuseria, 
 M. A. Robb, J. R. Cheeseman, G. Scalmani, V. Barone, 
 G. A. Petersson, H. Nakatsuji, X. Li, M. Caricato, A. V. Marenich, 
 J. Bloino, B. G. Janesko, R. Gomperts, B. Mennucci, H. P. Hratchian, 
 J. V. Ortiz, A. F. Izmaylov, J. L. Sonnenberg, D. Williams-Young, 
 F. Ding, F. Lipparini, F. Egidi, J. Goings, B. Peng, A. Petrone, 
 T. Henderson, D. Ranasinghe, V. G. Zakrzewski, J. Gao, N. Rega, 
 G. Zheng, W. Liang, M. Hada, M. Ehara, K. Toyota, R. Fukuda, 
 J. Hasegawa, M. Ishida, T. Nakajima, Y. Honda, O. Kitao, H. Nakai, 
 T. Vreven, K. Throssell, J. A. Montgomery, Jr., J. E. Peralta, 
 F. Ogliaro, M. J. Bearpark, J. J. Heyd, E. N. Brothers, K. N. Kudin, 
 V. N. Staroverov, T. A. Keith, R. Kobayashi, J. Normand, 
 K. Raghavachari, A. P. Rendell, J. C. Burant, S. S. Iyengar, 
 J. Tomasi, M. Cossi, J. M. Millam, M. Klene, C. Adamo, R. Cammi, 
 J. W. Ochterski, R. L. Martin, K. Morokuma, O. Farkas, 
 J. B. Foresman, and D. J. Fox, Gaussian, Inc., Wallingford CT, 2016.
 
 ******************************************
 Gaussian 16:  ES64L-G16RevA.03 25-Dec-2016
                16-Jul-2026 
 ******************************************
 %chk=opt_freq.chk
 %nproc=2
 Will use up to    2 processors via shared memory.
 %mem=2GB
 ----------------------
 #sp b3lyp/6-311+G(3df)
 ----------------------
 1/38=1,172=1/1;
 2/12=2,17=6,18=5,40=1/2;
 3/5=4,6=6,7=16,11=2,25=1,30=1,74=-5/1,2,3;
 4//1;
 5/5=2,38=5/2;
 6/7=2,8=2,9=2,10=2,28=1/1;
 99/5=1,9=1/99;
 --------------------
 single point of HOSO
 --------------------
 Symbolic Z-matrix:
 Charge =  0 Multiplicity = 2
 S                    -0.17617  -0.50268   0.01642 
 O                     1.39948   0.2941   -0.04446 
 O                    -1.19826   0.56127  -0.01889 
 H                     1.205     1.20386   0.25207 
 
                          Input orientation:                          
 ---------------------------------------------------------------------
 Center     Atomic      Atomic             Coordinates (Angstroms)
 Number     Number       Type             X           Y           Z
 ---------------------------------------------------------------------
      1         16           0       -0.176170   -0.502675    0.016424
      2          8           0        1.399478    0.294099   -0.044462
      3          8           0       -1.198263    0.561268   -0.018893
      4          1           0        1.204997    1.203861    0.252065
 ---------------------------------------------------------------------
                    Distance matrix (angstroms):
                    1          2          3          4
     1  S    0.000000
     2  O    1.766698   0.000000
     3  O    1.475770   2.611569   0.000000
     4  H    2.208034   0.976431   2.502399   0.000000
 Stoichiometry    HO2S(2)
 Framework group  C1[X(HO2S)]
 Deg. of freedom     6
 Full point group                 C1      NOp   1
 Largest Abelian subgroup         C1      NOp   1
 Largest concise Abelian subgroup C1      NOp   1
                         Standard orientation:                         
 ---------------------------------------------------------------------
 Center     Atomic      Atomic             Coordinates (Angstroms)
 Number     Number       Type             X           Y           Z
 ---------------------------------------------------------------------
      1         16           0       -0.195134   -0.495742    0.014866
      2          8           0        1.409884    0.240449   -0.041356
      3          8           0       -1.175821    0.606484   -0.020443
      4          1           0        1.249639    1.156421    0.256529
 ---------------------------------------------------------------------
 Rotational constants (GHZ):          31.4956020           8.8930888           6.9537686
 Standard basis: 6-311+G(3df) (5D, 7F)
 There are   146 symmetry adapted cartesian basis functions of A   symmetry.
 There are   128 symmetry adapted basis functions of A   symmetry.
   128 basis functions,   193 primitive gaussians,   146 cartesian basis functions
    17 alpha electrons       16 beta electrons
       nuclear repulsion energy       107.0676740167 Hartrees.
 NAtoms=    4 NActive=    4 NUniq=    4 SFac= 1.00D+00 NAtFMM=   60 NAOKFM=F Big=F
 Integral buffers will be    131072 words long.
 Raffenetti 2 integral format.
 Two-electron integral symmetry is turned on.
 One-electron integrals computed using PRISM.
 NBasis=   128 RedAO= T EigKep=  1.03D-03  NBF=   128
 NBsUse=   128 1.00D-06 EigRej= -1.00D+00 NBFU=   128
 ExpMin= 4.05D-02 ExpMax= 9.34D+04 ExpMxC= 3.17D+03 IAcc=3 IRadAn=         5 AccDes= 0.00D+00
 Harris functional with IExCor=  402 and IRadAn=       5 diagonalized for initial guess.
 HarFok:  IExCor=  402 AccDes= 0.00D+00 IRadAn=         5 IDoV= 1 UseB2=F ITyADJ=14
 ICtDFT=  3500011 ScaDFX=  1.000000  1.000000  1.000000  1.000000
 FoFCou: FMM=F IPFlag=           0 FMFlag=      100000 FMFlg1=           0
         NFxFlg=           0 DoJE=T BraDBF=F KetDBF=T FulRan=T
         wScrn=  0.000000 ICntrl=       500 IOpCl=  0 I1Cent=   200000004 NGrid=           0
         NMat0=    1 NMatS0=      1 NMatT0=    0 NMatD0=    1 NMtDS0=    0 NMtDT0=    0
 Petite list used in FoFCou.
 Initial guess <Sx>= 0.0000 <Sy>= 0.0000 <Sz>= 0.5000 <S**2>= 0.7500 S= 0.5000
 Keep R1 and R2 ints in memory in canonical form, NReq=70152648.
 Requested convergence on RMS density matrix=1.00D-08 within 128 cycles.
 Requested convergence on MAX density matrix=1.00D-06.
 Requested convergence on             energy=1.00D-06.
 No special actions if energy rises.
 SCF Done:  E(UB3LYP) =  -549.288718126     A.U. after   14 cycles
            NFock= 14  Conv=0.10D-07     -V/T= 2.0021
 <Sx>= 0.0000 <Sy>= 0.0000 <Sz>= 0.5000 <S**2>= 0.7552 S= 0.5026
 <L.S>= 0.000000000000E+00
 Annihilation of the first spin contaminant:
 S**2 before annihilation     0.7552,   after     0.7500

 **********************************************************************

            Population analysis using the SCF density.

 **********************************************************************

 Orbital symmetries:
 Alpha Orbitals:
       Occupied  (A) (A) (A) (A) (A) (A) (A) (A) (A) (A) (A) (A)
                 (A) (A) (A) (A) (A)
       Virtual   (A) (A) (A) (A) (A) (A) (A) (A) (A) (A) (A) (A)
                 (A) (A) (A) (A) (A) (A) (A) (A) (A) (A) (A) (A)
                 (A) (A) (A) (A) (A) (A) (A) (A) (A) (A) (A) (A)
                 (A) (A) (A) (A) (A) (A) (A) (A) (A) (A) (A) (A)
                 (A) (A) (A) (A) (A) (A) (A) (A) (A) (A) (A) (A)
                 (A) (A) (A) (A) (A) (A) (A) (A) (A) (A) (A) (A)
                 (A) (A) (A) (A) (A) (A) (A) (A) (A) (A) (A) (A)
                 (A) (A) (A) (A) (A) (A) (A) (A) (A) (A) (A) (A)
                 (A) (A) (A) (A) (A) (A) (A) (A) (A) (A) (A) (A)
                 (A) (A) (A)
 Beta  Orbitals:
       Occupied  (A) (A) (A) (A) (A) (A) (A) (A) (A) (A) (A) (A)
                 (A) (A) (A) (A)
       Virtual   (A) (A) (A) (A) (A) (A) (A) (A) (A) (A) (A) (A)
                 (A) (A) (A) (A) (A) (A) (A) (A) (A) (A) (A) (A)
                 (A) (A) (A) (A) (A) (A) (A) (A) (A) (A) (A) (A)
                 (A) (A) (A) (A) (A) (A) (A) (A) (A) (A) (A) (A)
                 (A) (A) (A) (A) (A) (A) (A) (A) (A) (A) (A) (A)
                 (A) (A) (A) (A) (A) (A) (A) (A) (A) (A) (A) (A)
                 (A) (A) (A) (A) (A) (A) (A) (A) (A) (A) (A) (A)
                 (A) (A) (A) (A) (A) (A) (A) (A) (A) (A) (A) (A)
                 (A) (A) (A) (A) (A) (A) (A) (A) (A) (A) (A) (A)
                 (A) (A) (A) (A)
 The electronic state is 2-A.
 Alpha  occ. eigenvalues --  -88.99321 -19.18262 -19.17834  -8.06584  -6.02952
 Alpha  occ. eigenvalues --   -6.02733  -6.02432  -1.10374  -1.03210  -0.69822
 Alpha  occ. eigenvalues --   -0.52929  -0.47598  -0.46949  -0.43397  -0.37294
 Alpha  occ. eigenvalues --   -0.34617  -0.24900
 Alpha virt. eigenvalues --   -0.05336  -0.00905   0.00825   0.03523   0.04651
 Alpha virt. eigenvalues --    0.07526   0.11524   0.15033   0.16460   0.16785
 Alpha virt. eigenvalues --    0.18125   0.20178   0.22957   0.24338   0.24813
 Alpha virt. eigenvalues --    0.26920   0.27983   0.29810   0.30903   0.32049
 Alpha virt. eigenvalues --    0.32707   0.39036   0.48892   0.57846   0.69842
 Alpha virt. eigenvalues --    0.74037   0.78665   0.78986   0.85079   0.86778
 Alpha virt. eigenvalues --    0.88548   0.89281   0.91237   0.93174   0.96303
 Alpha virt. eigenvalues --    0.98849   1.00241   1.02006   1.03902   1.06808
 Alpha virt. eigenvalues --    1.08545   1.17166   1.21974   1.27192   1.28262
 Alpha virt. eigenvalues --    1.35317   1.56696   1.57797   1.63702   1.69344
 Alpha virt. eigenvalues --    1.78109   1.86244   1.88953   1.98355   2.00761
 Alpha virt. eigenvalues --    2.10102   2.22899   2.27309   2.35736   3.29065
 Alpha virt. eigenvalues --    3.31972   3.35045   3.40470   3.41693   3.44600
 Alpha virt. eigenvalues --    3.46701   3.54877   3.58279   3.61191   4.44397
 Alpha virt. eigenvalues --    4.47086   4.49533   4.51635   4.78468   4.89857
 Alpha virt. eigenvalues --    4.93314   4.94055   4.95260   4.95842   4.96599
 Alpha virt. eigenvalues --    4.98412   4.99741   5.02208   5.10817   5.11939
 Alpha virt. eigenvalues --    5.22267   5.25059   5.28973   5.44716   5.53992
 Alpha virt. eigenvalues --    5.60087   5.71072   5.81761   6.24099   8.50540
 Alpha virt. eigenvalues --   14.19570  14.20874  14.22388  14.27084  14.28101
 Alpha virt. eigenvalues --   14.30368  14.31303  14.35756  14.43174  14.55848
 Alpha virt. eigenvalues --   17.20443  17.44894  17.69580  49.87250  49.94329
 Alpha virt. eigenvalues --  189.46349
  Beta  occ. eigenvalues --  -88.98928 -19.18022 -19.16782  -8.06226  -6.02739
  Beta  occ. eigenvalues --   -6.02248  -6.01473  -1.08829  -1.02296  -0.67266
  Beta  occ. eigenvalues --   -0.52138  -0.46738  -0.43358  -0.41384  -0.34538
  Beta  occ. eigenvalues --   -0.33696
  Beta virt. eigenvalues --   -0.13070  -0.04450  -0.00397   0.01278   0.03754
  Beta virt. eigenvalues --    0.04887   0.07811   0.11712   0.15335   0.16919
  Beta virt. eigenvalues --    0.17062   0.18638   0.20511   0.23252   0.24504
  Beta virt. eigenvalues --    0.25933   0.27399   0.28951   0.30495   0.32278
  Beta virt. eigenvalues --    0.32701   0.33184   0.39758   0.49010   0.58343
  Beta virt. eigenvalues --    0.70400   0.74422   0.79440   0.79716   0.86234
  Beta virt. eigenvalues --    0.86989   0.90282   0.90720   0.91690   0.93914
  Beta virt. eigenvalues --    0.97120   0.99589   1.01981   1.02857   1.04180
  Beta virt. eigenvalues --    1.07640   1.09623   1.17549   1.23363   1.27656
  Beta virt. eigenvalues --    1.29122   1.35629   1.59539   1.60127   1.65250
  Beta virt. eigenvalues --    1.70996   1.79274   1.86879   1.90792   2.00506
  Beta virt. eigenvalues --    2.00923   2.10583   2.23656   2.27923   2.36179
  Beta virt. eigenvalues --    3.30156   3.33861   3.37553   3.41290   3.42978
  Beta virt. eigenvalues --    3.46532   3.47583   3.55579   3.59542   3.61409
  Beta virt. eigenvalues --    4.45222   4.47241   4.50591   4.52132   4.79174
  Beta virt. eigenvalues --    4.90606   4.94154   4.94822   4.95963   4.97356
  Beta virt. eigenvalues --    5.00089   5.00768   5.01433   5.02884   5.11830
  Beta virt. eigenvalues --    5.13296   5.23038   5.25540   5.29709   5.45472
  Beta virt. eigenvalues --    5.55096   5.60408   5.73006   5.82278   6.24540
  Beta virt. eigenvalues --    8.51058  14.21171  14.23839  14.25820  14.28132
  Beta virt. eigenvalues --   14.29561  14.31900  14.34201  14.36616  14.43483
  Beta virt. eigenvalues --   14.57673  17.22107  17.45195  17.69881  49.87518
  Beta virt. eigenvalues --   49.95341 189.46704
          Condensed to atoms (all electrons):
               1          2          3          4
     1  S   15.252345   0.034690   0.141198   0.008911
     2  O    0.034690   8.443102  -0.001756   0.196644
     3  O    0.141198  -0.001756   8.217523   0.000826
     4  H    0.008911   0.196644   0.000826   0.326002
          Atomic-Atomic Spin Densities.
               1          2          3          4
     1  S    0.885606  -0.071847  -0.183605  -0.000702
     2  O   -0.071847   0.112929   0.014561  -0.002460
     3  O   -0.183605   0.014561   0.486951  -0.000455
     4  H   -0.000702  -0.002460  -0.000455   0.003530
 Mulliken charges and spin densities:
               1          2
     1  S    0.562856   0.629452
     2  O   -0.672681   0.053183
     3  O   -0.357792   0.317452
     4  H    0.467617  -0.000087
 Sum of Mulliken charges =  -0.00000   1.00000
 Mulliken charges and spin densities with hydrogens summed into heavy atoms:
               1          2
     1  S    0.562856   0.629452
     2  O   -0.205064   0.053096
     3  O   -0.357792   0.317452
 Electronic spatial extent (au):  <R**2>=            189.3614
 Charge=             -0.0000 electrons
 Dipole moment (field-independent basis, Debye):
    X=              0.4531    Y=             -0.3127    Z=              0.5084  Tot=              0.7494
 Quadrupole moment (field-independent basis, Debye-Ang):
   XX=            -27.4603   YY=            -21.2887   ZZ=            -23.9340
   XY=              3.2523   XZ=              0.6283   YZ=              0.8057
 Traceless Quadrupole moment (field-independent basis, Debye-Ang):
   XX=             -3.2326   YY=              2.9390   ZZ=              0.2937
   XY=              3.2523   XZ=              0.6283   YZ=              0.8057
 Octapole moment (field-independent basis, Debye-Ang**2):
  XXX=             -1.2286  YYY=              4.2051  ZZZ=              0.0044  XYY=              4.1738
  XXY=              0.7158  XXZ=              0.7616  XZZ=             -0.3491  YZZ=              1.0455
  YYZ=              0.9150  XYZ=              1.0220
 Hexadecapole moment (field-independent basis, Debye-Ang**3):
 XXXX=           -155.9999 YYYY=            -55.9245 ZZZZ=            -25.8827 XXXY=              5.6598
 XXXZ=              1.0084 YYYX=              5.2999 YYYZ=              1.2794 ZZZX=              0.3215
 ZZZY=              0.5495 XXYY=            -29.6807 XXZZ=            -29.4405 YYZZ=            -14.6733
 XXYZ=              1.4361 YYXZ=              1.1267 ZZXY=              0.2307
 N-N= 1.070676740167D+02 E-N=-1.517979828617D+03  KE= 5.481398707408D+02
                          Isotropic Fermi Contact Couplings
        Atom                 a.u.       MegaHertz       Gauss      10(-4) cm-1
     1  S(33)              0.04116      14.13658       5.04428       4.71546
     2  O(17)              0.01356      -8.21954      -2.93294      -2.74174
     3  O(17)              0.03581     -21.70654      -7.74543      -7.24052
     4  H(1)              -0.00006      -0.26906      -0.09601      -0.08975
 --------------------------------------------------------
       Center         ----  Spin Dipole Couplings  ----
                      3XX-RR        3YY-RR        3ZZ-RR
 --------------------------------------------------------
     1   Atom       -1.482773     -1.599439      3.082212
     2   Atom       -0.234260     -0.182865      0.417125
     3   Atom       -0.814210     -0.826850      1.641060
     4   Atom       -0.005626      0.016020     -0.010394
 --------------------------------------------------------
                        XY            XZ            YZ
 --------------------------------------------------------
     1   Atom        0.007856     -0.038126      0.163848
     2   Atom       -0.002627      0.022850     -0.102964
     3   Atom        0.007273      0.066514      0.044295
     4   Atom        0.003399      0.000961      0.004255
 --------------------------------------------------------


 ---------------------------------------------------------------------------------
              Anisotropic Spin Dipole Couplings in Principal Axis System
 ---------------------------------------------------------------------------------

       Atom             a.u.   MegaHertz   Gauss  10(-4) cm-1        Axes

              Baa    -1.6059   -65.839   -23.493   -21.961 -0.0746  0.9966 -0.0354
     1 S(33)  Bbb    -1.4824   -60.777   -21.687   -20.273  0.9972  0.0748  0.0056
              Bcc     3.0883   126.616    45.180    42.234 -0.0083  0.0349  0.9994
 
              Baa    -0.2351    17.011     6.070     5.674  0.9989 -0.0272 -0.0393
     2 O(17)  Bbb    -0.2000    14.472     5.164     4.827  0.0333  0.9860  0.1633
              Bcc     0.4351   -31.483   -11.234   -10.502  0.0343 -0.1644  0.9858
 
              Baa    -0.8302    60.076    21.436    20.039 -0.3927  0.9196 -0.0059
     3 O(17)  Bbb    -0.8134    58.859    21.002    19.633  0.9193  0.3923 -0.0320
              Bcc     1.6437  -118.934   -42.439   -39.672  0.0271  0.0180  0.9995
 
              Baa    -0.0111    -5.921    -2.113    -1.975 -0.0836 -0.1442  0.9860
     4 H(1)   Bbb    -0.0061    -3.270    -1.167    -1.091  0.9849 -0.1626  0.0597
              Bcc     0.0172     9.191     3.280     3.066  0.1517  0.9761  0.1556
 

 ---------------------------------------------------------------------------------

 1\1\GINC-QCEXNOD57\SP\UB3LYP\6-311+G(3df)\H1O2S1(2)\ROOT\16-Jul-2026\0
 \\#sp b3lyp/6-311+G(3df)\\single point of HOSO\\0,2\S,0,-0.17617,-0.50
 2675,0.016424\O,0,1.399478,0.294099,-0.044462\O,0,-1.198263,0.561268,-
 0.018893\H,0,1.204997,1.203861,0.252065\\Version=ES64L-G16RevA.03\Stat
 e=2-A\HF=-549.2887181\S2=0.755238\S2-1=0.\S2A=0.750019\RMSD=9.989e-09\
 Dipole=0.1832327,-0.1157546,0.1998788\Quadrupole=-2.5792775,2.3650651,
 0.2142123,2.2380972,0.4452138,0.6078079\PG=C01 [X(H1O2S1)]\\@


 THE SCIENTIFIC THEORIST IS NOT TO BE ENVIED. FOR NATURE, OR MORE
 PRECISELY EXPERIMENT, IS AN INEXORABLE AND NOT VERY FRIENDLY JUDGE OF HIS
 WORK.  IT NEVER SAYS "YES" TO A THEORY. IN THE MOST FAVORABLE CASES
 IT SAYS "MAYBE", AND IN THE GREAT MAJORITY OF CASES SIMPLY "NO"...
 PROBABLY EVERY THEORY WILL SOME DAY EXPERIENCE ITS "NO" - MOST
 THEORIES, SOON AFTER CONCEPTION.  -- A.EINSTEIN, NOV 11, 1922.
 Job cpu time:       0 days  0 hours  0 minutes 16.4 seconds.
 Elapsed time:       0 days  0 hours  0 minutes  8.5 seconds.
 File lengths (MBytes):  RWF=     16 Int=      0 D2E=      0 Chk=      2 Scr=      1
 Normal termination of Gaussian 16 at Thu Jul 16 14:38:13 2026.
