 Entering Gaussian System, Link 0=g16
 Initial command:
 /soft/g16.a03/g16/l1.exe "/scr/macias/296016.qcexmaster.qcexval.uv.es_vib3_-0.20/Gau-15209.inp" -scrdir="/scr/macias/296016.qcexmaster.qcexval.uv.es_vib3_-0.20/"
 Entering Link 1 = /soft/g16.a03/g16/l1.exe PID=     15217.
  
 Copyright (c) 1988,1990,1992,1993,1995,1998,2003,2009,2016,
            Gaussian, Inc.  All Rights Reserved.
  
 This is part of the Gaussian(R) 16 program.  It is based on
 the Gaussian(R) 09 system (copyright 2009, Gaussian, Inc.),
 the Gaussian(R) 03 system (copyright 2003, Gaussian, Inc.),
 the Gaussian(R) 98 system (copyright 1998, Gaussian, Inc.),
 the Gaussian(R) 94 system (copyright 1995, Gaussian, Inc.),
 the Gaussian 92(TM) system (copyright 1992, Gaussian, Inc.),
 the Gaussian 90(TM) system (copyright 1990, Gaussian, Inc.),
 the Gaussian 88(TM) system (copyright 1988, Gaussian, Inc.),
 the Gaussian 86(TM) system (copyright 1986, Carnegie Mellon
 University), and the Gaussian 82(TM) system (copyright 1983,
 Carnegie Mellon University). Gaussian is a federally registered
 trademark of Gaussian, Inc.
  
 This software contains proprietary and confidential information,
 including trade secrets, belonging to Gaussian, Inc.
  
 This software is provided under written license and may be
 used, copied, transmitted, or stored only in accord with that
 written license.
  
 The following legend is applicable only to US Government
 contracts under FAR:
  
                    RESTRICTED RIGHTS LEGEND
  
 Use, reproduction and disclosure by the US Government is
 subject to restrictions as set forth in subparagraphs (a)
 and (c) of the Commercial Computer Software - Restricted
 Rights clause in FAR 52.227-19.
  
 Gaussian, Inc.
 340 Quinnipiac St., Bldg. 40, Wallingford CT 06492
  
  
 ---------------------------------------------------------------
 Warning -- This program may not be used in any manner that
 competes with the business of Gaussian, Inc. or will provide
 assistance to any competitor of Gaussian, Inc.  The licensee
 of this program is prohibited from giving any competitor of
 Gaussian, Inc. access to this program.  By using this program,
 the user acknowledges that Gaussian, Inc. is engaged in the
 business of creating and licensing software in the field of
 computational chemistry and represents and warrants to the
 licensee that it is not a competitor of Gaussian, Inc. and that
 it will not use this program in any manner prohibited above.
 ---------------------------------------------------------------
  

 Cite this work as:
 Gaussian 16, Revision A.03,
 M. J. Frisch, G. W. Trucks, H. B. Schlegel, G. E. Scuseria, 
 M. A. Robb, J. R. Cheeseman, G. Scalmani, V. Barone, 
 G. A. Petersson, H. Nakatsuji, X. Li, M. Caricato, A. V. Marenich, 
 J. Bloino, B. G. Janesko, R. Gomperts, B. Mennucci, H. P. Hratchian, 
 J. V. Ortiz, A. F. Izmaylov, J. L. Sonnenberg, D. Williams-Young, 
 F. Ding, F. Lipparini, F. Egidi, J. Goings, B. Peng, A. Petrone, 
 T. Henderson, D. Ranasinghe, V. G. Zakrzewski, J. Gao, N. Rega, 
 G. Zheng, W. Liang, M. Hada, M. Ehara, K. Toyota, R. Fukuda, 
 J. Hasegawa, M. Ishida, T. Nakajima, Y. Honda, O. Kitao, H. Nakai, 
 T. Vreven, K. Throssell, J. A. Montgomery, Jr., J. E. Peralta, 
 F. Ogliaro, M. J. Bearpark, J. J. Heyd, E. N. Brothers, K. N. Kudin, 
 V. N. Staroverov, T. A. Keith, R. Kobayashi, J. Normand, 
 K. Raghavachari, A. P. Rendell, J. C. Burant, S. S. Iyengar, 
 J. Tomasi, M. Cossi, J. M. Millam, M. Klene, C. Adamo, R. Cammi, 
 J. W. Ochterski, R. L. Martin, K. Morokuma, O. Farkas, 
 J. B. Foresman, and D. J. Fox, Gaussian, Inc., Wallingford CT, 2016.
 
 ******************************************
 Gaussian 16:  ES64L-G16RevA.03 25-Dec-2016
                16-Jul-2026 
 ******************************************
 %chk=opt_freq.chk
 %nproc=2
 Will use up to    2 processors via shared memory.
 %mem=2GB
 ----------------------
 #sp b3lyp/6-311+G(3df)
 ----------------------
 1/38=1,172=1/1;
 2/12=2,17=6,18=5,40=1/2;
 3/5=4,6=6,7=16,11=2,25=1,30=1,74=-5/1,2,3;
 4//1;
 5/5=2,38=5/2;
 6/7=2,8=2,9=2,10=2,28=1/1;
 99/5=1,9=1/99;
 --------------------
 single point of HOSO
 --------------------
 Symbolic Z-matrix:
 Charge =  0 Multiplicity = 2
 S                    -0.20917  -0.52768   0.01842 
 O                     1.47048   0.3321   -0.04946 
 O                    -1.20026   0.57127  -0.01989 
 H                     1.177     1.22386   0.27607 
 
                          Input orientation:                          
 ---------------------------------------------------------------------
 Center     Atomic      Atomic             Coordinates (Angstroms)
 Number     Number       Type             X           Y           Z
 ---------------------------------------------------------------------
      1         16           0       -0.209170   -0.527675    0.018424
      2          8           0        1.470478    0.332099   -0.049462
      3          8           0       -1.200263    0.571268   -0.019893
      4          1           0        1.176997    1.223861    0.276065
 ---------------------------------------------------------------------
                    Distance matrix (angstroms):
                    1          2          3          4
     1  S    0.000000
     2  O    1.888131   0.000000
     3  O    1.480341   2.681592   0.000000
     4  H    2.248492   0.993649   2.482908   0.000000
 Stoichiometry    HO2S(2)
 Framework group  C1[X(HO2S)]
 Deg. of freedom     6
 Full point group                 C1      NOp   1
 Largest Abelian subgroup         C1      NOp   1
 Largest concise Abelian subgroup C1      NOp   1
                         Standard orientation:                         
 ---------------------------------------------------------------------
 Center     Atomic      Atomic             Coordinates (Angstroms)
 Number     Number       Type             X           Y           Z
 ---------------------------------------------------------------------
      1         16           0       -0.248111   -0.510763    0.015216
      2          8           0        1.491710    0.220453   -0.042942
      3          8           0       -1.153582    0.659736   -0.023067
      4          1           0        1.264757    1.130689    0.284626
 ---------------------------------------------------------------------
 Rotational constants (GHZ):          29.0030850           8.3394733           6.4965927
 Standard basis: 6-311+G(3df) (5D, 7F)
 There are   146 symmetry adapted cartesian basis functions of A   symmetry.
 There are   128 symmetry adapted basis functions of A   symmetry.
   128 basis functions,   193 primitive gaussians,   146 cartesian basis functions
    17 alpha electrons       16 beta electrons
       nuclear repulsion energy       103.9907052961 Hartrees.
 NAtoms=    4 NActive=    4 NUniq=    4 SFac= 1.00D+00 NAtFMM=   60 NAOKFM=F Big=F
 Integral buffers will be    131072 words long.
 Raffenetti 2 integral format.
 Two-electron integral symmetry is turned on.
 One-electron integrals computed using PRISM.
 NBasis=   128 RedAO= T EigKep=  1.08D-03  NBF=   128
 NBsUse=   128 1.00D-06 EigRej= -1.00D+00 NBFU=   128
 ExpMin= 4.05D-02 ExpMax= 9.34D+04 ExpMxC= 3.17D+03 IAcc=3 IRadAn=         5 AccDes= 0.00D+00
 Harris functional with IExCor=  402 and IRadAn=       5 diagonalized for initial guess.
 HarFok:  IExCor=  402 AccDes= 0.00D+00 IRadAn=         5 IDoV= 1 UseB2=F ITyADJ=14
 ICtDFT=  3500011 ScaDFX=  1.000000  1.000000  1.000000  1.000000
 FoFCou: FMM=F IPFlag=           0 FMFlag=      100000 FMFlg1=           0
         NFxFlg=           0 DoJE=T BraDBF=F KetDBF=T FulRan=T
         wScrn=  0.000000 ICntrl=       500 IOpCl=  0 I1Cent=   200000004 NGrid=           0
         NMat0=    1 NMatS0=      1 NMatT0=    0 NMatD0=    1 NMtDS0=    0 NMtDT0=    0
 Petite list used in FoFCou.
 Initial guess <Sx>= 0.0000 <Sy>= 0.0000 <Sz>= 0.5000 <S**2>= 0.7500 S= 0.5000
 Keep R1 and R2 ints in memory in canonical form, NReq=70152466.
 Requested convergence on RMS density matrix=1.00D-08 within 128 cycles.
 Requested convergence on MAX density matrix=1.00D-06.
 Requested convergence on             energy=1.00D-06.
 No special actions if energy rises.
 SCF Done:  E(UB3LYP) =  -549.276593170     A.U. after   15 cycles
            NFock= 15  Conv=0.40D-08     -V/T= 2.0023
 <Sx>= 0.0000 <Sy>= 0.0000 <Sz>= 0.5000 <S**2>= 0.7554 S= 0.5027
 <L.S>= 0.000000000000E+00
 Annihilation of the first spin contaminant:
 S**2 before annihilation     0.7554,   after     0.7500

 **********************************************************************

            Population analysis using the SCF density.

 **********************************************************************

 Orbital symmetries:
 Alpha Orbitals:
       Occupied  (A) (A) (A) (A) (A) (A) (A) (A) (A) (A) (A) (A)
                 (A) (A) (A) (A) (A)
       Virtual   (A) (A) (A) (A) (A) (A) (A) (A) (A) (A) (A) (A)
                 (A) (A) (A) (A) (A) (A) (A) (A) (A) (A) (A) (A)
                 (A) (A) (A) (A) (A) (A) (A) (A) (A) (A) (A) (A)
                 (A) (A) (A) (A) (A) (A) (A) (A) (A) (A) (A) (A)
                 (A) (A) (A) (A) (A) (A) (A) (A) (A) (A) (A) (A)
                 (A) (A) (A) (A) (A) (A) (A) (A) (A) (A) (A) (A)
                 (A) (A) (A) (A) (A) (A) (A) (A) (A) (A) (A) (A)
                 (A) (A) (A) (A) (A) (A) (A) (A) (A) (A) (A) (A)
                 (A) (A) (A) (A) (A) (A) (A) (A) (A) (A) (A) (A)
                 (A) (A) (A)
 Beta  Orbitals:
       Occupied  (A) (A) (A) (A) (A) (A) (A) (A) (A) (A) (A) (A)
                 (A) (A) (A) (A)
       Virtual   (A) (A) (A) (A) (A) (A) (A) (A) (A) (A) (A) (A)
                 (A) (A) (A) (A) (A) (A) (A) (A) (A) (A) (A) (A)
                 (A) (A) (A) (A) (A) (A) (A) (A) (A) (A) (A) (A)
                 (A) (A) (A) (A) (A) (A) (A) (A) (A) (A) (A) (A)
                 (A) (A) (A) (A) (A) (A) (A) (A) (A) (A) (A) (A)
                 (A) (A) (A) (A) (A) (A) (A) (A) (A) (A) (A) (A)
                 (A) (A) (A) (A) (A) (A) (A) (A) (A) (A) (A) (A)
                 (A) (A) (A) (A) (A) (A) (A) (A) (A) (A) (A) (A)
                 (A) (A) (A) (A) (A) (A) (A) (A) (A) (A) (A) (A)
                 (A) (A) (A) (A)
 The electronic state is 2-A.
 Alpha  occ. eigenvalues --  -89.00025 -19.19119 -19.17413  -8.07285  -6.03629
 Alpha  occ. eigenvalues --   -6.03435  -6.03162  -1.10328  -1.00736  -0.69796
 Alpha  occ. eigenvalues --   -0.50987  -0.47603  -0.46869  -0.44204  -0.35722
 Alpha  occ. eigenvalues --   -0.34398  -0.26088
 Alpha virt. eigenvalues --   -0.08326  -0.01601   0.00515   0.03262   0.04593
 Alpha virt. eigenvalues --    0.07463   0.11209   0.15216   0.16305   0.16486
 Alpha virt. eigenvalues --    0.17781   0.19908   0.22856   0.23869   0.24448
 Alpha virt. eigenvalues --    0.25929   0.27498   0.29869   0.30705   0.31791
 Alpha virt. eigenvalues --    0.32292   0.36875   0.48797   0.56094   0.69846
 Alpha virt. eigenvalues --    0.75101   0.78343   0.78498   0.84213   0.85801
 Alpha virt. eigenvalues --    0.87429   0.90243   0.91893   0.92942   0.95800
 Alpha virt. eigenvalues --    0.97387   0.99537   1.01934   1.02969   1.04720
 Alpha virt. eigenvalues --    1.07457   1.15810   1.20576   1.24524   1.27058
 Alpha virt. eigenvalues --    1.36617   1.56202   1.56851   1.62569   1.65366
 Alpha virt. eigenvalues --    1.67654   1.82018   1.84164   1.97698   1.99681
 Alpha virt. eigenvalues --    2.09714   2.22452   2.29269   2.37902   3.29363
 Alpha virt. eigenvalues --    3.31430   3.34257   3.41454   3.42275   3.43745
 Alpha virt. eigenvalues --    3.47300   3.54396   3.56586   3.61173   4.46496
 Alpha virt. eigenvalues --    4.47895   4.48593   4.49700   4.77748   4.91054
 Alpha virt. eigenvalues --    4.93303   4.94187   4.95333   4.96085   4.97036
 Alpha virt. eigenvalues --    4.97361   4.98690   5.00489   5.08232   5.09384
 Alpha virt. eigenvalues --    5.15323   5.16549   5.19384   5.45526   5.51892
 Alpha virt. eigenvalues --    5.55803   5.69134   5.75892   6.06009   8.44168
 Alpha virt. eigenvalues --   14.19183  14.19889  14.22217  14.28051  14.28179
 Alpha virt. eigenvalues --   14.29033  14.30738  14.35277  14.40266  14.54393
 Alpha virt. eigenvalues --   17.19188  17.44320  17.66376  49.85796  49.92747
 Alpha virt. eigenvalues --  189.39409
  Beta  occ. eigenvalues --  -88.99630 -19.18026 -19.17233  -8.06927  -6.03409
  Beta  occ. eigenvalues --   -6.02975  -6.02174  -1.08489  -1.00165  -0.66906
  Beta  occ. eigenvalues --   -0.50325  -0.46396  -0.43646  -0.41746  -0.33716
  Beta  occ. eigenvalues --   -0.33369
  Beta virt. eigenvalues --   -0.14200  -0.07397  -0.00952   0.00805   0.03365
  Beta virt. eigenvalues --    0.04817   0.07796   0.11393   0.15544   0.16762
  Beta virt. eigenvalues --    0.16838   0.18292   0.20264   0.23145   0.24227
  Beta virt. eigenvalues --    0.25390   0.26469   0.28729   0.30292   0.31803
  Beta virt. eigenvalues --    0.32548   0.32811   0.37664   0.48879   0.56651
  Beta virt. eigenvalues --    0.70380   0.75535   0.78873   0.79396   0.85145
  Beta virt. eigenvalues --    0.86261   0.89430   0.91283   0.92316   0.94054
  Beta virt. eigenvalues --    0.96500   0.97941   1.01682   1.02399   1.03346
  Beta virt. eigenvalues --    1.05666   1.08229   1.16152   1.21785   1.25223
  Beta virt. eigenvalues --    1.27996   1.36911   1.58041   1.59600   1.64125
  Beta virt. eigenvalues --    1.66917   1.69383   1.82759   1.86227   1.99568
  Beta virt. eigenvalues --    2.00109   2.10227   2.23377   2.29702   2.38375
  Beta virt. eigenvalues --    3.30729   3.33570   3.36542   3.42321   3.43313
  Beta virt. eigenvalues --    3.45917   3.47712   3.55026   3.57976   3.61311
  Beta virt. eigenvalues --    4.47323   4.48087   4.49654   4.50302   4.78439
  Beta virt. eigenvalues --    4.91802   4.94216   4.95775   4.96467   4.97528
  Beta virt. eigenvalues --    4.99175   4.99665   4.99990   5.01217   5.09140
  Beta virt. eigenvalues --    5.10865   5.15909   5.17260   5.20104   5.46156
  Beta virt. eigenvalues --    5.52939   5.56145   5.71154   5.76354   6.06582
  Beta virt. eigenvalues --    8.44704  14.21625  14.23300  14.24824  14.28939
  Beta virt. eigenvalues --   14.29136  14.31365  14.32959  14.36044  14.40456
  Beta virt. eigenvalues --   14.56270  17.20852  17.44639  17.66674  49.86009
  Beta virt. eigenvalues --   49.93796 189.39766
          Condensed to atoms (all electrons):
               1          2          3          4
     1  S   15.200348   0.068922   0.146666   0.007328
     2  O    0.068922   8.451977  -0.008477   0.193054
     3  O    0.146666  -0.008477   8.190898   0.001697
     4  H    0.007328   0.193054   0.001697   0.338399
          Atomic-Atomic Spin Densities.
               1          2          3          4
     1  S    0.859049  -0.049832  -0.178459  -0.000628
     2  O   -0.049832   0.078162   0.011439  -0.001354
     3  O   -0.178459   0.011439   0.498767  -0.000325
     4  H   -0.000628  -0.001354  -0.000325   0.002339
 Mulliken charges and spin densities:
               1          2
     1  S    0.576737   0.630130
     2  O   -0.705476   0.038415
     3  O   -0.330783   0.331423
     4  H    0.459522   0.000032
 Sum of Mulliken charges =  -0.00000   1.00000
 Mulliken charges and spin densities with hydrogens summed into heavy atoms:
               1          2
     1  S    0.576737   0.630130
     2  O   -0.245954   0.038447
     3  O   -0.330783   0.331423
 Electronic spatial extent (au):  <R**2>=            198.9451
 Charge=             -0.0000 electrons
 Dipole moment (field-independent basis, Debye):
    X=             -0.2215    Y=             -0.5753    Z=              0.5403  Tot=              0.8197
 Quadrupole moment (field-independent basis, Debye-Ang):
   XX=            -27.9035   YY=            -21.3533   ZZ=            -23.9973
   XY=              3.1521   XZ=              0.6423   YZ=              0.8658
 Traceless Quadrupole moment (field-independent basis, Debye-Ang):
   XX=             -3.4854   YY=              3.0647   ZZ=              0.4207
   XY=              3.1521   XZ=              0.6423   YZ=              0.8658
 Octapole moment (field-independent basis, Debye-Ang**2):
  XXX=             -3.5628  YYY=              3.4211  ZZZ=              0.0175  XYY=              3.7829
  XXY=              0.4937  XXZ=              0.7521  XZZ=             -0.6804  YZZ=              0.9592
  YYZ=              0.9393  XYZ=              1.1342
 Hexadecapole moment (field-independent basis, Debye-Ang**3):
 XXXX=           -166.6819 YYYY=            -58.5516 ZZZZ=            -26.0301 XXXY=              5.1937
 XXXZ=              0.8912 YYYX=              4.3845 YYYZ=              1.3170 ZZZX=              0.3081
 ZZZY=              0.5899 XXYY=            -31.9891 XXZZ=            -31.1738 YYZZ=            -15.0366
 XXYZ=              1.6066 YYXZ=              1.1548 ZZXY=              0.0898
 N-N= 1.039907052961D+02 E-N=-1.511719039805D+03  KE= 5.480125928677D+02
                          Isotropic Fermi Contact Couplings
        Atom                 a.u.       MegaHertz       Gauss      10(-4) cm-1
     1  S(33)              0.02712       9.31504       3.32384       3.10716
     2  O(17)              0.01066      -6.46416      -2.30657      -2.15621
     3  O(17)              0.03632     -22.01689      -7.85618      -7.34405
     4  H(1)              -0.00005      -0.23462      -0.08372      -0.07826
 --------------------------------------------------------
       Center         ----  Spin Dipole Couplings  ----
                      3XX-RR        3YY-RR        3ZZ-RR
 --------------------------------------------------------
     1   Atom       -1.476304     -1.594648      3.070952
     2   Atom       -0.229690     -0.141212      0.370902
     3   Atom       -0.829953     -0.855203      1.685156
     4   Atom       -0.001605      0.010940     -0.009335
 --------------------------------------------------------
                        XY            XZ            YZ
 --------------------------------------------------------
     1   Atom        0.025969     -0.018882      0.174402
     2   Atom       -0.021597      0.027849     -0.095483
     3   Atom        0.017482      0.062268      0.056246
     4   Atom        0.003355      0.001047      0.003407
 --------------------------------------------------------


 ---------------------------------------------------------------------------------
              Anisotropic Spin Dipole Couplings in Principal Axis System
 ---------------------------------------------------------------------------------

       Atom             a.u.   MegaHertz   Gauss  10(-4) cm-1        Axes

              Baa    -1.6066   -65.870   -23.504   -21.972 -0.2005  0.9790 -0.0373
     1 S(33)  Bbb    -1.4709   -60.306   -21.519   -20.116  0.9797  0.2005 -0.0036
              Bcc     3.0775   126.176    45.023    42.088 -0.0039  0.0373  0.9993
 
              Baa    -0.2347    16.986     6.061     5.666  0.9767  0.2141 -0.0112
     2 O(17)  Bbb    -0.1550    11.213     4.001     3.740 -0.2084  0.9603  0.1854
              Bcc     0.3897   -28.199   -10.062    -9.406  0.0504 -0.1788  0.9826
 
              Baa    -0.8643    62.543    22.317    20.862 -0.4401  0.8979 -0.0091
     3 O(17)  Bbb    -0.8236    59.597    21.266    19.879  0.8976  0.4396 -0.0321
              Bcc     1.6880  -122.140   -43.582   -40.741  0.0249  0.0223  0.9994
 
              Baa    -0.0099    -5.295    -1.889    -1.766 -0.0633 -0.1509  0.9865
     4 H(1)   Bbb    -0.0024    -1.302    -0.465    -0.434  0.9682 -0.2489  0.0240
              Bcc     0.0124     6.597     2.354     2.201  0.2419  0.9567  0.1619
 

 ---------------------------------------------------------------------------------

 1\1\GINC-QCEXNOD57\SP\UB3LYP\6-311+G(3df)\H1O2S1(2)\ROOT\16-Jul-2026\0
 \\#sp b3lyp/6-311+G(3df)\\single point of HOSO\\0,2\S,0,-0.20917,-0.52
 7675,0.018424\O,0,1.470478,0.332099,-0.049462\O,0,-1.200263,0.571268,-
 0.019893\H,0,1.176997,1.223861,0.276065\\Version=ES64L-G16RevA.03\Stat
 e=2-A\HF=-549.2765932\S2=0.755383\S2-1=0.\S2A=0.750021\RMSD=3.955e-09\
 Dipole=-0.0690269,-0.231486,0.2136878\Quadrupole=-2.9119043,2.6073345,
 0.3045698,1.9559597,0.4334848,0.661827\PG=C01 [X(H1O2S1)]\\@


 DIATOMIC MOLECULES ARE PECULIAR BECAUSE THEY ONLY HAVE TWO ENDS,
 AND THESE ENDS ARE VERY CLOSE TOGETHER.
 KLAUS RUEDENBERG, REV.MOD.PHYS. PG 176, 32, (1960)
 Job cpu time:       0 days  0 hours  0 minutes 17.4 seconds.
 Elapsed time:       0 days  0 hours  0 minutes  9.0 seconds.
 File lengths (MBytes):  RWF=     16 Int=      0 D2E=      0 Chk=      2 Scr=      1
 Normal termination of Gaussian 16 at Thu Jul 16 14:38:14 2026.
