 Entering Gaussian System, Link 0=g16
 Initial command:
 /soft/g16.a03/g16/l1.exe "/scr/macias/296020.qcexmaster.qcexval.uv.es_vib3_0.10/Gau-15435.inp" -scrdir="/scr/macias/296020.qcexmaster.qcexval.uv.es_vib3_0.10/"
 Entering Link 1 = /soft/g16.a03/g16/l1.exe PID=     15436.
  
 Copyright (c) 1988,1990,1992,1993,1995,1998,2003,2009,2016,
            Gaussian, Inc.  All Rights Reserved.
  
 This is part of the Gaussian(R) 16 program.  It is based on
 the Gaussian(R) 09 system (copyright 2009, Gaussian, Inc.),
 the Gaussian(R) 03 system (copyright 2003, Gaussian, Inc.),
 the Gaussian(R) 98 system (copyright 1998, Gaussian, Inc.),
 the Gaussian(R) 94 system (copyright 1995, Gaussian, Inc.),
 the Gaussian 92(TM) system (copyright 1992, Gaussian, Inc.),
 the Gaussian 90(TM) system (copyright 1990, Gaussian, Inc.),
 the Gaussian 88(TM) system (copyright 1988, Gaussian, Inc.),
 the Gaussian 86(TM) system (copyright 1986, Carnegie Mellon
 University), and the Gaussian 82(TM) system (copyright 1983,
 Carnegie Mellon University). Gaussian is a federally registered
 trademark of Gaussian, Inc.
  
 This software contains proprietary and confidential information,
 including trade secrets, belonging to Gaussian, Inc.
  
 This software is provided under written license and may be
 used, copied, transmitted, or stored only in accord with that
 written license.
  
 The following legend is applicable only to US Government
 contracts under FAR:
  
                    RESTRICTED RIGHTS LEGEND
  
 Use, reproduction and disclosure by the US Government is
 subject to restrictions as set forth in subparagraphs (a)
 and (c) of the Commercial Computer Software - Restricted
 Rights clause in FAR 52.227-19.
  
 Gaussian, Inc.
 340 Quinnipiac St., Bldg. 40, Wallingford CT 06492
  
  
 ---------------------------------------------------------------
 Warning -- This program may not be used in any manner that
 competes with the business of Gaussian, Inc. or will provide
 assistance to any competitor of Gaussian, Inc.  The licensee
 of this program is prohibited from giving any competitor of
 Gaussian, Inc. access to this program.  By using this program,
 the user acknowledges that Gaussian, Inc. is engaged in the
 business of creating and licensing software in the field of
 computational chemistry and represents and warrants to the
 licensee that it is not a competitor of Gaussian, Inc. and that
 it will not use this program in any manner prohibited above.
 ---------------------------------------------------------------
  

 Cite this work as:
 Gaussian 16, Revision A.03,
 M. J. Frisch, G. W. Trucks, H. B. Schlegel, G. E. Scuseria, 
 M. A. Robb, J. R. Cheeseman, G. Scalmani, V. Barone, 
 G. A. Petersson, H. Nakatsuji, X. Li, M. Caricato, A. V. Marenich, 
 J. Bloino, B. G. Janesko, R. Gomperts, B. Mennucci, H. P. Hratchian, 
 J. V. Ortiz, A. F. Izmaylov, J. L. Sonnenberg, D. Williams-Young, 
 F. Ding, F. Lipparini, F. Egidi, J. Goings, B. Peng, A. Petrone, 
 T. Henderson, D. Ranasinghe, V. G. Zakrzewski, J. Gao, N. Rega, 
 G. Zheng, W. Liang, M. Hada, M. Ehara, K. Toyota, R. Fukuda, 
 J. Hasegawa, M. Ishida, T. Nakajima, Y. Honda, O. Kitao, H. Nakai, 
 T. Vreven, K. Throssell, J. A. Montgomery, Jr., J. E. Peralta, 
 F. Ogliaro, M. J. Bearpark, J. J. Heyd, E. N. Brothers, K. N. Kudin, 
 V. N. Staroverov, T. A. Keith, R. Kobayashi, J. Normand, 
 K. Raghavachari, A. P. Rendell, J. C. Burant, S. S. Iyengar, 
 J. Tomasi, M. Cossi, J. M. Millam, M. Klene, C. Adamo, R. Cammi, 
 J. W. Ochterski, R. L. Martin, K. Morokuma, O. Farkas, 
 J. B. Foresman, and D. J. Fox, Gaussian, Inc., Wallingford CT, 2016.
 
 ******************************************
 Gaussian 16:  ES64L-G16RevA.03 25-Dec-2016
                16-Jul-2026 
 ******************************************
 %chk=opt_freq.chk
 %nproc=2
 Will use up to    2 processors via shared memory.
 %mem=2GB
 ----------------------
 #sp b3lyp/6-311+G(3df)
 ----------------------
 1/38=1,172=1/1;
 2/12=2,17=6,18=5,40=1/2;
 3/5=4,6=6,7=16,11=2,25=1,30=1,74=-5/1,2,3;
 4//1;
 5/5=2,38=5/2;
 6/7=2,8=2,9=2,10=2,28=1/1;
 99/5=1,9=1/99;
 --------------------
 single point of HOSO
 --------------------
 Symbolic Z-matrix:
 Charge =  0 Multiplicity = 2
 S                    -0.11017  -0.45268   0.01242 
 O                     1.25748   0.2181   -0.03446 
 O                    -1.19426   0.54127  -0.01689 
 H                     1.261     1.16386   0.20407 
 
                          Input orientation:                          
 ---------------------------------------------------------------------
 Center     Atomic      Atomic             Coordinates (Angstroms)
 Number     Number       Type             X           Y           Z
 ---------------------------------------------------------------------
      1         16           0       -0.110170   -0.452675    0.012424
      2          8           0        1.257478    0.218099   -0.034462
      3          8           0       -1.194263    0.541268   -0.016893
      4          1           0        1.260997    1.163861    0.204065
 ---------------------------------------------------------------------
                    Distance matrix (angstroms):
                    1          2          3          4
     1  S    0.000000
     2  O    1.524007   0.000000
     3  O    1.471068   2.473010   0.000000
     4  H    2.128383   0.975384   2.542587   0.000000
 Stoichiometry    HO2S(2)
 Framework group  C1[X(HO2S)]
 Deg. of freedom     6
 Full point group                 C1      NOp   1
 Largest Abelian subgroup         C1      NOp   1
 Largest concise Abelian subgroup C1      NOp   1
                         Standard orientation:                         
 ---------------------------------------------------------------------
 Center     Atomic      Atomic             Coordinates (Angstroms)
 Number     Number       Type             X           Y           Z
 ---------------------------------------------------------------------
      1         16           0       -0.092802   -0.456427    0.013858
      2          8           0        1.247979    0.266275   -0.037207
      3          8           0       -1.214328    0.495078   -0.015419
      4          1           0        1.215624    1.212002    0.199283
 ---------------------------------------------------------------------
 Rotational constants (GHZ):          38.3307575          10.0342192           7.9688669
 Standard basis: 6-311+G(3df) (5D, 7F)
 There are   146 symmetry adapted cartesian basis functions of A   symmetry.
 There are   128 symmetry adapted basis functions of A   symmetry.
   128 basis functions,   193 primitive gaussians,   146 cartesian basis functions
    17 alpha electrons       16 beta electrons
       nuclear repulsion energy       114.1678107563 Hartrees.
 NAtoms=    4 NActive=    4 NUniq=    4 SFac= 1.00D+00 NAtFMM=   60 NAOKFM=F Big=F
 Integral buffers will be    131072 words long.
 Raffenetti 2 integral format.
 Two-electron integral symmetry is turned on.
 One-electron integrals computed using PRISM.
 NBasis=   128 RedAO= T EigKep=  8.30D-04  NBF=   128
 NBsUse=   128 1.00D-06 EigRej= -1.00D+00 NBFU=   128
 ExpMin= 4.05D-02 ExpMax= 9.34D+04 ExpMxC= 3.17D+03 IAcc=3 IRadAn=         5 AccDes= 0.00D+00
 Harris functional with IExCor=  402 and IRadAn=       5 diagonalized for initial guess.
 HarFok:  IExCor=  402 AccDes= 0.00D+00 IRadAn=         5 IDoV= 1 UseB2=F ITyADJ=14
 ICtDFT=  3500011 ScaDFX=  1.000000  1.000000  1.000000  1.000000
 FoFCou: FMM=F IPFlag=           0 FMFlag=      100000 FMFlg1=           0
         NFxFlg=           0 DoJE=T BraDBF=F KetDBF=T FulRan=T
         wScrn=  0.000000 ICntrl=       500 IOpCl=  0 I1Cent=   200000004 NGrid=           0
         NMat0=    1 NMatS0=      1 NMatT0=    0 NMatD0=    1 NMtDS0=    0 NMtDT0=    0
 Petite list used in FoFCou.
 Initial guess <Sx>= 0.0000 <Sy>= 0.0000 <Sz>= 0.5000 <S**2>= 0.7500 S= 0.5000
 Keep R1 and R2 ints in memory in canonical form, NReq=70152984.
 Requested convergence on RMS density matrix=1.00D-08 within 128 cycles.
 Requested convergence on MAX density matrix=1.00D-06.
 Requested convergence on             energy=1.00D-06.
 No special actions if energy rises.
 SCF Done:  E(UB3LYP) =  -549.285781519     A.U. after   13 cycles
            NFock= 13  Conv=0.84D-08     -V/T= 2.0014
 <Sx>= 0.0000 <Sy>= 0.0000 <Sz>= 0.5000 <S**2>= 0.7553 S= 0.5026
 <L.S>= 0.000000000000E+00
 Annihilation of the first spin contaminant:
 S**2 before annihilation     0.7553,   after     0.7500

 **********************************************************************

            Population analysis using the SCF density.

 **********************************************************************

 Orbital symmetries:
 Alpha Orbitals:
       Occupied  (A) (A) (A) (A) (A) (A) (A) (A) (A) (A) (A) (A)
                 (A) (A) (A) (A) (A)
       Virtual   (A) (A) (A) (A) (A) (A) (A) (A) (A) (A) (A) (A)
                 (A) (A) (A) (A) (A) (A) (A) (A) (A) (A) (A) (A)
                 (A) (A) (A) (A) (A) (A) (A) (A) (A) (A) (A) (A)
                 (A) (A) (A) (A) (A) (A) (A) (A) (A) (A) (A) (A)
                 (A) (A) (A) (A) (A) (A) (A) (A) (A) (A) (A) (A)
                 (A) (A) (A) (A) (A) (A) (A) (A) (A) (A) (A) (A)
                 (A) (A) (A) (A) (A) (A) (A) (A) (A) (A) (A) (A)
                 (A) (A) (A) (A) (A) (A) (A) (A) (A) (A) (A) (A)
                 (A) (A) (A) (A) (A) (A) (A) (A) (A) (A) (A) (A)
                 (A) (A) (A)
 Beta  Orbitals:
       Occupied  (A) (A) (A) (A) (A) (A) (A) (A) (A) (A) (A) (A)
                 (A) (A) (A) (A)
       Virtual   (A) (A) (A) (A) (A) (A) (A) (A) (A) (A) (A) (A)
                 (A) (A) (A) (A) (A) (A) (A) (A) (A) (A) (A) (A)
                 (A) (A) (A) (A) (A) (A) (A) (A) (A) (A) (A) (A)
                 (A) (A) (A) (A) (A) (A) (A) (A) (A) (A) (A) (A)
                 (A) (A) (A) (A) (A) (A) (A) (A) (A) (A) (A) (A)
                 (A) (A) (A) (A) (A) (A) (A) (A) (A) (A) (A) (A)
                 (A) (A) (A) (A) (A) (A) (A) (A) (A) (A) (A) (A)
                 (A) (A) (A) (A) (A) (A) (A) (A) (A) (A) (A) (A)
                 (A) (A) (A) (A) (A) (A) (A) (A) (A) (A) (A) (A)
                 (A) (A) (A) (A)
 The electronic state is 2-A.
 Alpha  occ. eigenvalues --  -88.97339 -19.20856 -19.14895  -8.04764  -6.01169
 Alpha  occ. eigenvalues --   -6.00910  -6.00541  -1.15406  -1.04767  -0.72476
 Alpha  occ. eigenvalues --   -0.55137  -0.49737  -0.49187  -0.40938  -0.39189
 Alpha  occ. eigenvalues --   -0.33897  -0.21834
 Alpha virt. eigenvalues --   -0.02210   0.00762   0.02399   0.04261   0.05048
 Alpha virt. eigenvalues --    0.08210   0.11813   0.14643   0.16351   0.17481
 Alpha virt. eigenvalues --    0.19001   0.20992   0.23023   0.25120   0.25915
 Alpha virt. eigenvalues --    0.28524   0.29936   0.30758   0.31280   0.32409
 Alpha virt. eigenvalues --    0.33616   0.45704   0.47397   0.61444   0.70181
 Alpha virt. eigenvalues --    0.72055   0.78640   0.79486   0.85487   0.87556
 Alpha virt. eigenvalues --    0.88281   0.89006   0.92287   0.94223   0.96766
 Alpha virt. eigenvalues --    1.01074   1.01970   1.05316   1.07582   1.08501
 Alpha virt. eigenvalues --    1.16899   1.19899   1.25501   1.30062   1.31614
 Alpha virt. eigenvalues --    1.35422   1.57599   1.60376   1.66446   1.73408
 Alpha virt. eigenvalues --    1.83793   1.94523   2.00832   2.03570   2.07887
 Alpha virt. eigenvalues --    2.12439   2.20344   2.29536   2.35852   3.27050
 Alpha virt. eigenvalues --    3.33153   3.36591   3.38838   3.40388   3.47159
 Alpha virt. eigenvalues --    3.49425   3.52842   3.60983   3.65324   4.44713
 Alpha virt. eigenvalues --    4.47859   4.50829   4.68833   4.82571   4.87827
 Alpha virt. eigenvalues --    4.92115   4.93481   4.94740   4.96465   4.98959
 Alpha virt. eigenvalues --    5.01222   5.02360   5.08589   5.14809   5.17266
 Alpha virt. eigenvalues --    5.33602   5.44526   5.53067   5.55018   5.55898
 Alpha virt. eigenvalues --    5.62729   5.78516   5.95317   6.58211   8.80780
 Alpha virt. eigenvalues --   14.17654  14.22482  14.24911  14.25527  14.27511
 Alpha virt. eigenvalues --   14.33427  14.35669  14.37483  14.53282  14.60605
 Alpha virt. eigenvalues --   17.23234  17.52947  17.80766  49.89238  49.98230
 Alpha virt. eigenvalues --  189.77630
  Beta  occ. eigenvalues --  -88.96947 -19.20523 -19.13938  -8.04405  -6.00960
  Beta  occ. eigenvalues --   -6.00358  -5.99648  -1.14544  -1.03176  -0.70934
  Beta  occ. eigenvalues --   -0.53654  -0.48974  -0.46316  -0.39289  -0.35260
  Beta  occ. eigenvalues --   -0.32766
  Beta virt. eigenvalues --   -0.10166  -0.01925   0.01217   0.02683   0.04615
  Beta virt. eigenvalues --    0.06021   0.08518   0.12093   0.14925   0.16674
  Beta virt. eigenvalues --    0.17760   0.19612   0.21232   0.23296   0.25180
  Beta virt. eigenvalues --    0.27119   0.28825   0.30591   0.31845   0.32639
  Beta virt. eigenvalues --    0.33266   0.34069   0.46392   0.47598   0.61828
  Beta virt. eigenvalues --    0.70727   0.72491   0.79517   0.80157   0.86239
  Beta virt. eigenvalues --    0.88276   0.89372   0.89984   0.93200   0.95388
  Beta virt. eigenvalues --    0.97688   1.02015   1.04140   1.05535   1.08238
  Beta virt. eigenvalues --    1.09046   1.18255   1.20339   1.26859   1.30635
  Beta virt. eigenvalues --    1.32095   1.35732   1.61069   1.62161   1.68052
  Beta virt. eigenvalues --    1.74991   1.84490   1.95874   2.03358   2.03772
  Beta virt. eigenvalues --    2.08627   2.12968   2.20912   2.30235   2.36397
  Beta virt. eigenvalues --    3.28041   3.34291   3.38252   3.40743   3.42124
  Beta virt. eigenvalues --    3.49331   3.50263   3.53571   3.61961   3.65685
  Beta virt. eigenvalues --    4.45479   4.48044   4.51827   4.69667   4.82957
  Beta virt. eigenvalues --    4.88538   4.93338   4.94277   4.95484   4.97457
  Beta virt. eigenvalues --    5.02716   5.03396   5.04196   5.09404   5.15827
  Beta virt. eigenvalues --    5.18559   5.34329   5.45264   5.53705   5.55833
  Beta virt. eigenvalues --    5.56735   5.63436   5.80136   5.95829   6.58652
  Beta virt. eigenvalues --    8.81249  14.19022  14.24177  14.27021  14.28547
  Beta virt. eigenvalues --   14.30219  14.35354  14.37911  14.38090  14.53910
  Beta virt. eigenvalues --   14.62154  17.24905  17.53223  17.81077  49.89603
  Beta virt. eigenvalues --   49.99145 189.77985
          Condensed to atoms (all electrons):
               1          2          3          4
     1  S   15.468447  -0.078574   0.120002   0.007879
     2  O   -0.078574   8.412799   0.009773   0.197708
     3  O    0.120002   0.009773   8.290381   0.000344
     4  H    0.007879   0.197708   0.000344   0.314110
          Atomic-Atomic Spin Densities.
               1          2          3          4
     1  S    0.988598  -0.138366  -0.200603  -0.001839
     2  O   -0.138366   0.190539   0.023582  -0.006842
     3  O   -0.200603   0.023582   0.460789  -0.000758
     4  H   -0.001839  -0.006842  -0.000758   0.009726
 Mulliken charges and spin densities:
               1          2
     1  S    0.482246   0.647790
     2  O   -0.541706   0.068913
     3  O   -0.420500   0.283010
     4  H    0.479960   0.000287
 Sum of Mulliken charges =  -0.00000   1.00000
 Mulliken charges and spin densities with hydrogens summed into heavy atoms:
               1          2
     1  S    0.482246   0.647790
     2  O   -0.061746   0.069200
     3  O   -0.420500   0.283010
 Electronic spatial extent (au):  <R**2>=            171.9715
 Charge=             -0.0000 electrons
 Dipole moment (field-independent basis, Debye):
    X=              1.9983    Y=              0.4697    Z=              0.4126  Tot=              2.0938
 Quadrupole moment (field-independent basis, Debye-Ang):
   XX=            -26.5030   YY=            -21.2279   ZZ=            -23.8324
   XY=              3.5832   XZ=              0.5644   YZ=              0.6662
 Traceless Quadrupole moment (field-independent basis, Debye-Ang):
   XX=             -2.6486   YY=              2.6265   ZZ=              0.0221
   XY=              3.5832   XZ=              0.5644   YZ=              0.6662
 Octapole moment (field-independent basis, Debye-Ang**2):
  XXX=              3.7430  YYY=              6.0168  ZZZ=             -0.0964  XYY=              5.0092
  XXY=              1.3318  XXZ=              0.7053  XZZ=              0.4611  YZZ=              1.3401
  YYZ=              0.7871  XYZ=              0.7694
 Hexadecapole moment (field-independent basis, Debye-Ang**3):
 XXXX=           -137.4928 YYYY=            -50.6749 ZZZZ=            -25.9131 XXXY=              6.4844
 XXXZ=              1.0028 YYYX=              7.2818 YYYZ=              1.1399 ZZZX=              0.2893
 ZZZY=              0.4673 XXYY=            -25.8321 XXZZ=            -26.5097 YYZZ=            -14.0816
 XXYZ=              1.0762 YYXZ=              0.9837 ZZXY=              0.5553
 N-N= 1.141678107563D+02 E-N=-1.532416435320D+03  KE= 5.485096239709D+02
                          Isotropic Fermi Contact Couplings
        Atom                 a.u.       MegaHertz       Gauss      10(-4) cm-1
     1  S(33)              0.06696      23.00058       8.20718       7.67217
     2  O(17)              0.01989     -12.05491      -4.30149      -4.02109
     3  O(17)              0.03490     -21.15655      -7.54918      -7.05707
     4  H(1)               0.00022       0.98342       0.35091       0.32803
 --------------------------------------------------------
       Center         ----  Spin Dipole Couplings  ----
                      3XX-RR        3YY-RR        3ZZ-RR
 --------------------------------------------------------
     1   Atom       -1.486860     -1.611322      3.098182
     2   Atom       -0.273437     -0.253972      0.527409
     3   Atom       -0.752042     -0.752756      1.504798
     4   Atom       -0.012769      0.023973     -0.011204
 --------------------------------------------------------
                        XY            XZ            YZ
 --------------------------------------------------------
     1   Atom       -0.005219     -0.070496      0.150434
     2   Atom        0.018067      0.001149     -0.112820
     3   Atom       -0.003308      0.078653      0.022780
     4   Atom        0.006389      0.001127      0.004139
 --------------------------------------------------------


 ---------------------------------------------------------------------------------
              Anisotropic Spin Dipole Couplings in Principal Axis System
 ---------------------------------------------------------------------------------

       Atom             a.u.   MegaHertz   Gauss  10(-4) cm-1        Axes

              Baa    -1.6162   -66.262   -23.644   -22.103  0.0231  0.9992 -0.0315
     1 S(33)  Bbb    -1.4879   -61.002   -21.767   -20.348  0.9996 -0.0226  0.0161
              Bcc     3.1041   127.264    45.411    42.451 -0.0154  0.0319  0.9994
 
              Baa    -0.2898    20.971     7.483     6.995  0.7405 -0.6656 -0.0929
     2 O(17)  Bbb    -0.2536    18.347     6.547     6.120  0.6721  0.7330  0.1049
              Bcc     0.5434   -39.318   -14.030   -13.115 -0.0017 -0.1401  0.9901
 
              Baa    -0.7581    54.854    19.573    18.297  0.7784  0.6268 -0.0334
     3 O(17)  Bbb    -0.7497    54.247    19.357    18.095 -0.6268  0.7791  0.0140
              Bcc     1.5078  -109.101   -38.930   -36.392  0.0348  0.0100  0.9993
 
              Baa    -0.0139    -7.431    -2.652    -2.479  0.9724 -0.1438 -0.1838
     4 H(1)   Bbb    -0.0116    -6.201    -2.213    -2.068  0.1634 -0.1428  0.9762
              Bcc     0.0255    13.631     4.864     4.547  0.1667  0.9792  0.1154
 

 ---------------------------------------------------------------------------------

 1\1\GINC-QCEXNOD57\SP\UB3LYP\6-311+G(3df)\H1O2S1(2)\ROOT\16-Jul-2026\0
 \\#sp b3lyp/6-311+G(3df)\\single point of HOSO\\0,2\S,0,-0.11017,-0.45
 2675,0.012424\O,0,1.257478,0.218099,-0.034462\O,0,-1.194263,0.541268,-
 0.016893\H,0,1.260997,1.163861,0.204065\\Version=ES64L-G16RevA.03\Stat
 e=2-A\HF=-549.2857815\S2=0.755283\S2-1=0.\S2A=0.750019\RMSD=8.414e-09\
 Dipole=0.7923714,0.1541281,0.1642321\Quadrupole=-1.7606333,1.7403858,0
 .0202474,2.8048077,0.4407639,0.4881109\PG=C01 [X(H1O2S1)]\\@


 FESTINA LENTE!
     - IMPERATOR AUGUSTUS 
 Job cpu time:       0 days  0 hours  0 minutes 15.4 seconds.
 Elapsed time:       0 days  0 hours  0 minutes  8.0 seconds.
 File lengths (MBytes):  RWF=     16 Int=      0 D2E=      0 Chk=      2 Scr=      1
 Normal termination of Gaussian 16 at Thu Jul 16 14:38:21 2026.
