 Entering Gaussian System, Link 0=g16
 Initial command:
 /soft/g16.a03/g16/l1.exe "/scr/macias/296014.qcexmaster.qcexval.uv.es_vib2_0.40/Gau-15160.inp" -scrdir="/scr/macias/296014.qcexmaster.qcexval.uv.es_vib2_0.40/"
 Entering Link 1 = /soft/g16.a03/g16/l1.exe PID=     15179.
  
 Copyright (c) 1988,1990,1992,1993,1995,1998,2003,2009,2016,
            Gaussian, Inc.  All Rights Reserved.
  
 This is part of the Gaussian(R) 16 program.  It is based on
 the Gaussian(R) 09 system (copyright 2009, Gaussian, Inc.),
 the Gaussian(R) 03 system (copyright 2003, Gaussian, Inc.),
 the Gaussian(R) 98 system (copyright 1998, Gaussian, Inc.),
 the Gaussian(R) 94 system (copyright 1995, Gaussian, Inc.),
 the Gaussian 92(TM) system (copyright 1992, Gaussian, Inc.),
 the Gaussian 90(TM) system (copyright 1990, Gaussian, Inc.),
 the Gaussian 88(TM) system (copyright 1988, Gaussian, Inc.),
 the Gaussian 86(TM) system (copyright 1986, Carnegie Mellon
 University), and the Gaussian 82(TM) system (copyright 1983,
 Carnegie Mellon University). Gaussian is a federally registered
 trademark of Gaussian, Inc.
  
 This software contains proprietary and confidential information,
 including trade secrets, belonging to Gaussian, Inc.
  
 This software is provided under written license and may be
 used, copied, transmitted, or stored only in accord with that
 written license.
  
 The following legend is applicable only to US Government
 contracts under FAR:
  
                    RESTRICTED RIGHTS LEGEND
  
 Use, reproduction and disclosure by the US Government is
 subject to restrictions as set forth in subparagraphs (a)
 and (c) of the Commercial Computer Software - Restricted
 Rights clause in FAR 52.227-19.
  
 Gaussian, Inc.
 340 Quinnipiac St., Bldg. 40, Wallingford CT 06492
  
  
 ---------------------------------------------------------------
 Warning -- This program may not be used in any manner that
 competes with the business of Gaussian, Inc. or will provide
 assistance to any competitor of Gaussian, Inc.  The licensee
 of this program is prohibited from giving any competitor of
 Gaussian, Inc. access to this program.  By using this program,
 the user acknowledges that Gaussian, Inc. is engaged in the
 business of creating and licensing software in the field of
 computational chemistry and represents and warrants to the
 licensee that it is not a competitor of Gaussian, Inc. and that
 it will not use this program in any manner prohibited above.
 ---------------------------------------------------------------
  

 Cite this work as:
 Gaussian 16, Revision A.03,
 M. J. Frisch, G. W. Trucks, H. B. Schlegel, G. E. Scuseria, 
 M. A. Robb, J. R. Cheeseman, G. Scalmani, V. Barone, 
 G. A. Petersson, H. Nakatsuji, X. Li, M. Caricato, A. V. Marenich, 
 J. Bloino, B. G. Janesko, R. Gomperts, B. Mennucci, H. P. Hratchian, 
 J. V. Ortiz, A. F. Izmaylov, J. L. Sonnenberg, D. Williams-Young, 
 F. Ding, F. Lipparini, F. Egidi, J. Goings, B. Peng, A. Petrone, 
 T. Henderson, D. Ranasinghe, V. G. Zakrzewski, J. Gao, N. Rega, 
 G. Zheng, W. Liang, M. Hada, M. Ehara, K. Toyota, R. Fukuda, 
 J. Hasegawa, M. Ishida, T. Nakajima, Y. Honda, O. Kitao, H. Nakai, 
 T. Vreven, K. Throssell, J. A. Montgomery, Jr., J. E. Peralta, 
 F. Ogliaro, M. J. Bearpark, J. J. Heyd, E. N. Brothers, K. N. Kudin, 
 V. N. Staroverov, T. A. Keith, R. Kobayashi, J. Normand, 
 K. Raghavachari, A. P. Rendell, J. C. Burant, S. S. Iyengar, 
 J. Tomasi, M. Cossi, J. M. Millam, M. Klene, C. Adamo, R. Cammi, 
 J. W. Ochterski, R. L. Martin, K. Morokuma, O. Farkas, 
 J. B. Foresman, and D. J. Fox, Gaussian, Inc., Wallingford CT, 2016.
 
 ******************************************
 Gaussian 16:  ES64L-G16RevA.03 25-Dec-2016
                16-Jul-2026 
 ******************************************
 %chk=opt_freq.chk
 %nproc=2
 Will use up to    2 processors via shared memory.
 %mem=2GB
 ----------------------
 #sp b3lyp/6-311+G(3df)
 ----------------------
 1/38=1,172=1/1;
 2/12=2,17=6,18=5,40=1/2;
 3/5=4,6=6,7=16,11=2,25=1,30=1,74=-5/1,2,3;
 4//1;
 5/5=2,38=5/2;
 6/7=2,8=2,9=2,10=2,28=1/1;
 99/5=1,9=1/99;
 --------------------
 single point of HOSO
 --------------------
 Symbolic Z-matrix:
 Charge =  0 Multiplicity = 2
 S                    -0.13917  -0.40568   0.00642 
 O                     1.44048   0.1841   -0.01946 
 O                    -1.33226   0.47927  -0.00989 
 H                     1.521     1.18386   0.06007 
 
                          Input orientation:                          
 ---------------------------------------------------------------------
 Center     Atomic      Atomic             Coordinates (Angstroms)
 Number     Number       Type             X           Y           Z
 ---------------------------------------------------------------------
      1         16           0       -0.139170   -0.405675    0.006424
      2          8           0        1.440478    0.184099   -0.019462
      3          8           0       -1.332263    0.479268   -0.009893
      4          1           0        1.520997    1.183861    0.060065
 ---------------------------------------------------------------------
                    Distance matrix (angstroms):
                    1          2          3          4
     1  S    0.000000
     2  O    1.686354   0.000000
     3  O    1.485551   2.788424   0.000000
     4  H    2.299056   1.006147   2.939802   0.000000
 Stoichiometry    HO2S(2)
 Framework group  C1[X(HO2S)]
 Deg. of freedom     6
 Full point group                 C1      NOp   1
 Largest Abelian subgroup         C1      NOp   1
 Largest concise Abelian subgroup C1      NOp   1
                         Standard orientation:                         
 ---------------------------------------------------------------------
 Center     Atomic      Atomic             Coordinates (Angstroms)
 Number     Number       Type             X           Y           Z
 ---------------------------------------------------------------------
      1         16           0       -0.139820   -0.407189    0.005937
      2          8           0        1.433666    0.199048   -0.014299
      3          8           0       -1.341993    0.465444   -0.006506
      4          1           0        1.503729    1.199083    0.071448
 ---------------------------------------------------------------------
 Rotational constants (GHZ):          46.8981442           7.8204914           6.7044117
 Standard basis: 6-311+G(3df) (5D, 7F)
 There are   146 symmetry adapted cartesian basis functions of A   symmetry.
 There are   128 symmetry adapted basis functions of A   symmetry.
   128 basis functions,   193 primitive gaussians,   146 cartesian basis functions
    17 alpha electrons       16 beta electrons
       nuclear repulsion energy       107.2380328234 Hartrees.
 NAtoms=    4 NActive=    4 NUniq=    4 SFac= 1.00D+00 NAtFMM=   60 NAOKFM=F Big=F
 Integral buffers will be    131072 words long.
 Raffenetti 2 integral format.
 Two-electron integral symmetry is turned on.
 One-electron integrals computed using PRISM.
 NBasis=   128 RedAO= T EigKep=  8.70D-04  NBF=   128
 NBsUse=   128 1.00D-06 EigRej= -1.00D+00 NBFU=   128
 ExpMin= 4.05D-02 ExpMax= 9.34D+04 ExpMxC= 3.17D+03 IAcc=3 IRadAn=         5 AccDes= 0.00D+00
 Harris functional with IExCor=  402 and IRadAn=       5 diagonalized for initial guess.
 HarFok:  IExCor=  402 AccDes= 0.00D+00 IRadAn=         5 IDoV= 1 UseB2=F ITyADJ=14
 ICtDFT=  3500011 ScaDFX=  1.000000  1.000000  1.000000  1.000000
 FoFCou: FMM=F IPFlag=           0 FMFlag=      100000 FMFlg1=           0
         NFxFlg=           0 DoJE=T BraDBF=F KetDBF=T FulRan=T
         wScrn=  0.000000 ICntrl=       500 IOpCl=  0 I1Cent=   200000004 NGrid=           0
         NMat0=    1 NMatS0=      1 NMatT0=    0 NMatD0=    1 NMtDS0=    0 NMtDT0=    0
 Petite list used in FoFCou.
 Initial guess <Sx>= 0.0000 <Sy>= 0.0000 <Sz>= 0.5000 <S**2>= 0.7500 S= 0.5000
 Keep R1 and R2 ints in memory in canonical form, NReq=70152507.
 Requested convergence on RMS density matrix=1.00D-08 within 128 cycles.
 Requested convergence on MAX density matrix=1.00D-06.
 Requested convergence on             energy=1.00D-06.
 No special actions if energy rises.
 SCF Done:  E(UB3LYP) =  -549.284471483     A.U. after   14 cycles
            NFock= 14  Conv=0.36D-08     -V/T= 2.0021
 <Sx>= 0.0000 <Sy>= 0.0000 <Sz>= 0.5000 <S**2>= 0.7555 S= 0.5027
 <L.S>= 0.000000000000E+00
 Annihilation of the first spin contaminant:
 S**2 before annihilation     0.7555,   after     0.7500

 **********************************************************************

            Population analysis using the SCF density.

 **********************************************************************

 Orbital symmetries:
 Alpha Orbitals:
       Occupied  (A) (A) (A) (A) (A) (A) (A) (A) (A) (A) (A) (A)
                 (A) (A) (A) (A) (A)
       Virtual   (A) (A) (A) (A) (A) (A) (A) (A) (A) (A) (A) (A)
                 (A) (A) (A) (A) (A) (A) (A) (A) (A) (A) (A) (A)
                 (A) (A) (A) (A) (A) (A) (A) (A) (A) (A) (A) (A)
                 (A) (A) (A) (A) (A) (A) (A) (A) (A) (A) (A) (A)
                 (A) (A) (A) (A) (A) (A) (A) (A) (A) (A) (A) (A)
                 (A) (A) (A) (A) (A) (A) (A) (A) (A) (A) (A) (A)
                 (A) (A) (A) (A) (A) (A) (A) (A) (A) (A) (A) (A)
                 (A) (A) (A) (A) (A) (A) (A) (A) (A) (A) (A) (A)
                 (A) (A) (A) (A) (A) (A) (A) (A) (A) (A) (A) (A)
                 (A) (A) (A)
 Beta  Orbitals:
       Occupied  (A) (A) (A) (A) (A) (A) (A) (A) (A) (A) (A) (A)
                 (A) (A) (A) (A)
       Virtual   (A) (A) (A) (A) (A) (A) (A) (A) (A) (A) (A) (A)
                 (A) (A) (A) (A) (A) (A) (A) (A) (A) (A) (A) (A)
                 (A) (A) (A) (A) (A) (A) (A) (A) (A) (A) (A) (A)
                 (A) (A) (A) (A) (A) (A) (A) (A) (A) (A) (A) (A)
                 (A) (A) (A) (A) (A) (A) (A) (A) (A) (A) (A) (A)
                 (A) (A) (A) (A) (A) (A) (A) (A) (A) (A) (A) (A)
                 (A) (A) (A) (A) (A) (A) (A) (A) (A) (A) (A) (A)
                 (A) (A) (A) (A) (A) (A) (A) (A) (A) (A) (A) (A)
                 (A) (A) (A) (A) (A) (A) (A) (A) (A) (A) (A) (A)
                 (A) (A) (A) (A)
 The electronic state is 2-A.
 Alpha  occ. eigenvalues --  -88.98289 -19.19899 -19.17292  -8.05509  -6.01892
 Alpha  occ. eigenvalues --   -6.01643  -6.01351  -1.09836  -1.04650  -0.70440
 Alpha  occ. eigenvalues --   -0.54148  -0.47042  -0.46794  -0.41855  -0.39137
 Alpha  occ. eigenvalues --   -0.34528  -0.23380
 Alpha virt. eigenvalues --   -0.04603  -0.00536   0.01085   0.03577   0.04667
 Alpha virt. eigenvalues --    0.08278   0.10854   0.14450   0.16273   0.17202
 Alpha virt. eigenvalues --    0.18635   0.21140   0.22652   0.24887   0.24986
 Alpha virt. eigenvalues --    0.26499   0.28474   0.29924   0.30941   0.31452
 Alpha virt. eigenvalues --    0.33038   0.45251   0.46416   0.58113   0.70858
 Alpha virt. eigenvalues --    0.73552   0.76442   0.83398   0.85877   0.87246
 Alpha virt. eigenvalues --    0.89078   0.91408   0.92191   0.92851   0.95134
 Alpha virt. eigenvalues --    0.98377   1.00999   1.02719   1.06282   1.08057
 Alpha virt. eigenvalues --    1.11723   1.13982   1.24392   1.30352   1.33466
 Alpha virt. eigenvalues --    1.36907   1.57407   1.58176   1.64691   1.66305
 Alpha virt. eigenvalues --    1.77853   1.90533   1.91769   2.00151   2.02282
 Alpha virt. eigenvalues --    2.10394   2.22112   2.27193   2.34792   3.29491
 Alpha virt. eigenvalues --    3.34037   3.34636   3.39521   3.40959   3.45312
 Alpha virt. eigenvalues --    3.49509   3.53130   3.57023   3.60488   4.43222
 Alpha virt. eigenvalues --    4.47847   4.49838   4.56145   4.79392   4.88807
 Alpha virt. eigenvalues --    4.92644   4.95038   4.96059   4.98574   4.99007
 Alpha virt. eigenvalues --    4.99426   5.01383   5.03029   5.08031   5.12078
 Alpha virt. eigenvalues --    5.29183   5.32302   5.36530   5.41222   5.52473
 Alpha virt. eigenvalues --    5.63734   5.71045   5.88300   6.22361   8.57265
 Alpha virt. eigenvalues --   14.19122  14.21755  14.22102  14.25999  14.26790
 Alpha virt. eigenvalues --   14.31163  14.33886  14.36070  14.41320  14.57499
 Alpha virt. eigenvalues --   17.21369  17.36528  17.73782  49.86684  49.95614
 Alpha virt. eigenvalues --  189.50542
  Beta  occ. eigenvalues --  -88.97888 -19.19559 -19.16272  -8.05145  -6.01678
  Beta  occ. eigenvalues --   -6.01168  -6.00358  -1.08528  -1.03340  -0.68322
  Beta  occ. eigenvalues --   -0.53110  -0.46437  -0.42793  -0.40693  -0.35437
  Beta  occ. eigenvalues --   -0.33352
  Beta virt. eigenvalues --   -0.11623  -0.03699   0.00121   0.01416   0.03716
  Beta virt. eigenvalues --    0.04899   0.08427   0.11127   0.14581   0.16710
  Beta virt. eigenvalues --    0.17510   0.19647   0.21226   0.23065   0.25013
  Beta virt. eigenvalues --    0.26019   0.27200   0.28623   0.31304   0.31659
  Beta virt. eigenvalues --    0.32866   0.33289   0.45636   0.46708   0.58633
  Beta virt. eigenvalues --    0.71454   0.73924   0.77313   0.84235   0.86141
  Beta virt. eigenvalues --    0.88216   0.89688   0.92067   0.93864   0.94565
  Beta virt. eigenvalues --    0.96258   0.98516   1.03048   1.03375   1.06730
  Beta virt. eigenvalues --    1.08416   1.13139   1.14444   1.25990   1.31121
  Beta virt. eigenvalues --    1.33821   1.37199   1.60001   1.60862   1.65957
  Beta virt. eigenvalues --    1.68258   1.78702   1.91965   1.92926   2.02258
  Beta virt. eigenvalues --    2.02451   2.10790   2.22671   2.27553   2.35512
  Beta virt. eigenvalues --    3.30485   3.36219   3.37104   3.40205   3.42103
  Beta virt. eigenvalues --    3.47956   3.50660   3.53792   3.57413   3.61260
  Beta virt. eigenvalues --    4.44044   4.48266   4.50848   4.56501   4.79991
  Beta virt. eigenvalues --    4.89795   4.93900   4.96408   4.96786   5.00658
  Beta virt. eigenvalues --    5.01197   5.02183   5.02317   5.03787   5.09393
  Beta virt. eigenvalues --    5.13594   5.29881   5.32795   5.37511   5.41693
  Beta virt. eigenvalues --    5.53594   5.64125   5.72941   5.89036   6.22806
  Beta virt. eigenvalues --    8.57776  14.20523  14.24988  14.25260  14.27613
  Beta virt. eigenvalues --   14.28732  14.34409  14.35259  14.36665  14.41984
  Beta virt. eigenvalues --   14.59085  17.23061  17.36804  17.74096  49.87079
  Beta virt. eigenvalues --   49.96564 189.50905
          Condensed to atoms (all electrons):
               1          2          3          4
     1  S   15.475233  -0.084352   0.087782   0.022928
     2  O   -0.084352   8.483244   0.020201   0.183727
     3  O    0.087782   0.020201   8.253300  -0.004714
     4  H    0.022928   0.183727  -0.004714   0.337077
          Atomic-Atomic Spin Densities.
               1          2          3          4
     1  S    0.927407  -0.105321  -0.193581   0.001304
     2  O   -0.105321   0.166924   0.014186  -0.001215
     3  O   -0.193581   0.014186   0.479603  -0.000986
     4  H    0.001304  -0.001215  -0.000986  -0.002706
 Mulliken charges and spin densities:
               1          2
     1  S    0.498409   0.629808
     2  O   -0.602821   0.074574
     3  O   -0.356570   0.299221
     4  H    0.460982  -0.003604
 Sum of Mulliken charges =  -0.00000   1.00000
 Mulliken charges and spin densities with hydrogens summed into heavy atoms:
               1          2
     1  S    0.498409   0.629808
     2  O   -0.141839   0.070970
     3  O   -0.356570   0.299221
 Electronic spatial extent (au):  <R**2>=            194.8722
 Charge=             -0.0000 electrons
 Dipole moment (field-independent basis, Debye):
    X=              1.5224    Y=              0.5823    Z=              0.1553  Tot=              1.6373
 Quadrupole moment (field-independent basis, Debye-Ang):
   XX=            -26.6959   YY=            -21.1566   ZZ=            -24.1796
   XY=              4.0603   XZ=              0.2360   YZ=              0.2317
 Traceless Quadrupole moment (field-independent basis, Debye-Ang):
   XX=             -2.6852   YY=              2.8541   ZZ=             -0.1689
   XY=              4.0603   XZ=              0.2360   YZ=              0.2317
 Octapole moment (field-independent basis, Debye-Ang**2):
  XXX=              3.3387  YYY=              5.1311  ZZZ=             -0.0168  XYY=              5.3879
  XXY=              2.9041  XXZ=              0.3918  XZZ=             -0.3145  YZZ=              0.9402
  YYZ=              0.2794  XYZ=              0.3426
 Hexadecapole moment (field-independent basis, Debye-Ang**3):
 XXXX=           -167.9767 YYYY=            -45.1915 ZZZZ=            -26.0393 XXXY=             10.1320
 XXXZ=              0.6161 YYYX=              7.6708 YYYZ=              0.3829 ZZZX=              0.1152
 ZZZY=              0.1459 XXYY=            -28.4147 XXZZ=            -32.4800 YYZZ=            -13.0447
 XXYZ=              0.5642 YYXZ=              0.4021 ZZXY=              0.3347
 N-N= 1.072380328234D+02 E-N=-1.518374911283D+03  KE= 5.481424143495D+02
                          Isotropic Fermi Contact Couplings
        Atom                 a.u.       MegaHertz       Gauss      10(-4) cm-1
     1  S(33)              0.06421      22.05604       7.87014       7.35710
     2  O(17)              0.01500      -9.09540      -3.24546      -3.03390
     3  O(17)              0.03472     -21.04773      -7.51035      -7.02077
     4  H(1)              -0.00203      -9.05362      -3.23056      -3.01996
 --------------------------------------------------------
       Center         ----  Spin Dipole Couplings  ----
                      3XX-RR        3YY-RR        3ZZ-RR
 --------------------------------------------------------
     1   Atom       -1.511249     -1.650036      3.161284
     2   Atom       -0.290247     -0.273128      0.563375
     3   Atom       -0.797426     -0.807005      1.604431
     4   Atom       -0.011103      0.021847     -0.010744
 --------------------------------------------------------
                        XY            XZ            YZ
 --------------------------------------------------------
     1   Atom        0.012352     -0.013067      0.080803
     2   Atom        0.021078     -0.007399     -0.037991
     3   Atom       -0.004920      0.031465      0.025643
     4   Atom        0.009652      0.000401      0.001294
 --------------------------------------------------------


 ---------------------------------------------------------------------------------
              Anisotropic Spin Dipole Couplings in Principal Axis System
 ---------------------------------------------------------------------------------

       Atom             a.u.   MegaHertz   Gauss  10(-4) cm-1        Axes

              Baa    -1.6525   -67.751   -24.175   -22.599 -0.0887  0.9959 -0.0170
     1 S(33)  Bbb    -1.5102   -61.915   -22.093   -20.653  0.9961  0.0887  0.0013
              Bcc     3.1627   129.667    46.268    43.252 -0.0028  0.0168  0.9999
 
              Baa    -0.3047    22.048     7.867     7.355  0.8215 -0.5699 -0.0179
     2 O(17)  Bbb    -0.2605    18.847     6.725     6.287  0.5701  0.8205  0.0430
              Bcc     0.5652   -40.896   -14.593   -13.641 -0.0098 -0.0455  0.9989
 
              Baa    -0.8096    58.584    20.904    19.541  0.4072  0.9132 -0.0150
     3 O(17)  Bbb    -0.7955    57.561    20.539    19.200  0.9133 -0.4073 -0.0076
              Bcc     1.6051  -116.145   -41.443   -38.742  0.0131  0.0106  0.9999
 
              Baa    -0.0137    -7.322    -2.613    -2.442  0.9651 -0.2613 -0.0164
     4 H(1)   Bbb    -0.0108    -5.760    -2.055    -1.921  0.0058 -0.0413  0.9991
              Bcc     0.0245    13.082     4.668     4.364  0.2617  0.9644  0.0384
 

 ---------------------------------------------------------------------------------

 1\1\GINC-QCEXNOD57\SP\UB3LYP\6-311+G(3df)\H1O2S1(2)\ROOT\16-Jul-2026\0
 \\#sp b3lyp/6-311+G(3df)\\single point of HOSO\\0,2\S,0,-0.13917,-0.40
 5675,0.006424\O,0,1.440478,0.184099,-0.019462\O,0,-1.332263,0.479268,-
 0.009893\H,0,1.520997,1.183861,0.060065\\Version=ES64L-G16RevA.03\Stat
 e=2-A\HF=-549.2844715\S2=0.7555\S2-1=0.\S2A=0.750021\RMSD=3.621e-09\Di
 pole=0.6013598,0.2232428,0.0589634\Quadrupole=-1.933014,2.0609791,-0.1
 279651,3.0619454,0.1608497,0.1531179\PG=C01 [X(H1O2S1)]\\@


 THE SCIENTIFIC THEORIST IS NOT TO BE ENVIED. FOR NATURE, OR MORE
 PRECISELY EXPERIMENT, IS AN INEXORABLE AND NOT VERY FRIENDLY JUDGE OF HIS
 WORK.  IT NEVER SAYS "YES" TO A THEORY. IN THE MOST FAVORABLE CASES
 IT SAYS "MAYBE", AND IN THE GREAT MAJORITY OF CASES SIMPLY "NO"...
 PROBABLY EVERY THEORY WILL SOME DAY EXPERIENCE ITS "NO" - MOST
 THEORIES, SOON AFTER CONCEPTION.  -- A.EINSTEIN, NOV 11, 1922.
 Job cpu time:       0 days  0 hours  0 minutes 16.2 seconds.
 Elapsed time:       0 days  0 hours  0 minutes  8.5 seconds.
 File lengths (MBytes):  RWF=     16 Int=      0 D2E=      0 Chk=      2 Scr=      1
 Normal termination of Gaussian 16 at Thu Jul 16 14:38:13 2026.
