 Entering Gaussian System, Link 0=g16
 Initial command:
 /soft/g16.a03/g16/l1.exe "/scr/macias/296032.qcexmaster.qcexval.uv.es_vib4_0.40/Gau-15292.inp" -scrdir="/scr/macias/296032.qcexmaster.qcexval.uv.es_vib4_0.40/"
 Entering Link 1 = /soft/g16.a03/g16/l1.exe PID=     15293.
  
 Copyright (c) 1988,1990,1992,1993,1995,1998,2003,2009,2016,
            Gaussian, Inc.  All Rights Reserved.
  
 This is part of the Gaussian(R) 16 program.  It is based on
 the Gaussian(R) 09 system (copyright 2009, Gaussian, Inc.),
 the Gaussian(R) 03 system (copyright 2003, Gaussian, Inc.),
 the Gaussian(R) 98 system (copyright 1998, Gaussian, Inc.),
 the Gaussian(R) 94 system (copyright 1995, Gaussian, Inc.),
 the Gaussian 92(TM) system (copyright 1992, Gaussian, Inc.),
 the Gaussian 90(TM) system (copyright 1990, Gaussian, Inc.),
 the Gaussian 88(TM) system (copyright 1988, Gaussian, Inc.),
 the Gaussian 86(TM) system (copyright 1986, Carnegie Mellon
 University), and the Gaussian 82(TM) system (copyright 1983,
 Carnegie Mellon University). Gaussian is a federally registered
 trademark of Gaussian, Inc.
  
 This software contains proprietary and confidential information,
 including trade secrets, belonging to Gaussian, Inc.
  
 This software is provided under written license and may be
 used, copied, transmitted, or stored only in accord with that
 written license.
  
 The following legend is applicable only to US Government
 contracts under FAR:
  
                    RESTRICTED RIGHTS LEGEND
  
 Use, reproduction and disclosure by the US Government is
 subject to restrictions as set forth in subparagraphs (a)
 and (c) of the Commercial Computer Software - Restricted
 Rights clause in FAR 52.227-19.
  
 Gaussian, Inc.
 340 Quinnipiac St., Bldg. 40, Wallingford CT 06492
  
  
 ---------------------------------------------------------------
 Warning -- This program may not be used in any manner that
 competes with the business of Gaussian, Inc. or will provide
 assistance to any competitor of Gaussian, Inc.  The licensee
 of this program is prohibited from giving any competitor of
 Gaussian, Inc. access to this program.  By using this program,
 the user acknowledges that Gaussian, Inc. is engaged in the
 business of creating and licensing software in the field of
 computational chemistry and represents and warrants to the
 licensee that it is not a competitor of Gaussian, Inc. and that
 it will not use this program in any manner prohibited above.
 ---------------------------------------------------------------
  

 Cite this work as:
 Gaussian 16, Revision A.03,
 M. J. Frisch, G. W. Trucks, H. B. Schlegel, G. E. Scuseria, 
 M. A. Robb, J. R. Cheeseman, G. Scalmani, V. Barone, 
 G. A. Petersson, H. Nakatsuji, X. Li, M. Caricato, A. V. Marenich, 
 J. Bloino, B. G. Janesko, R. Gomperts, B. Mennucci, H. P. Hratchian, 
 J. V. Ortiz, A. F. Izmaylov, J. L. Sonnenberg, D. Williams-Young, 
 F. Ding, F. Lipparini, F. Egidi, J. Goings, B. Peng, A. Petrone, 
 T. Henderson, D. Ranasinghe, V. G. Zakrzewski, J. Gao, N. Rega, 
 G. Zheng, W. Liang, M. Hada, M. Ehara, K. Toyota, R. Fukuda, 
 J. Hasegawa, M. Ishida, T. Nakajima, Y. Honda, O. Kitao, H. Nakai, 
 T. Vreven, K. Throssell, J. A. Montgomery, Jr., J. E. Peralta, 
 F. Ogliaro, M. J. Bearpark, J. J. Heyd, E. N. Brothers, K. N. Kudin, 
 V. N. Staroverov, T. A. Keith, R. Kobayashi, J. Normand, 
 K. Raghavachari, A. P. Rendell, J. C. Burant, S. S. Iyengar, 
 J. Tomasi, M. Cossi, J. M. Millam, M. Klene, C. Adamo, R. Cammi, 
 J. W. Ochterski, R. L. Martin, K. Morokuma, O. Farkas, 
 J. B. Foresman, and D. J. Fox, Gaussian, Inc., Wallingford CT, 2016.
 
 ******************************************
 Gaussian 16:  ES64L-G16RevA.03 25-Dec-2016
                16-Jul-2026 
 ******************************************
 %chk=opt_freq.chk
 %nproc=2
 Will use up to    2 processors via shared memory.
 %mem=2GB
 ----------------------
 #sp b3lyp/6-311+G(3df)
 ----------------------
 1/38=1,172=1/1;
 2/12=2,17=6,18=5,40=1/2;
 3/5=4,6=6,7=16,11=2,25=1,30=1,74=-5/1,2,3;
 4//1;
 5/5=2,38=5/2;
 6/7=2,8=2,9=2,10=2,28=1/1;
 99/5=1,9=1/99;
 --------------------
 single point of HOSO
 --------------------
 Symbolic Z-matrix:
 Charge =  0 Multiplicity = 2
 S                    -0.12317  -0.47368   0.01842 
 O                     1.34848   0.2321   -0.04746 
 O                    -1.23226   0.57127  -0.01789 
 H                     0.849     1.10786   0.28807 
 
                          Input orientation:                          
 ---------------------------------------------------------------------
 Center     Atomic      Atomic             Coordinates (Angstroms)
 Number     Number       Type             X           Y           Z
 ---------------------------------------------------------------------
      1         16           0       -0.123170   -0.473675    0.018424
      2          8           0        1.348478    0.232099   -0.047462
      3          8           0       -1.232263    0.571268   -0.017893
      4          1           0        0.848997    1.107861    0.288065
 ---------------------------------------------------------------------
                    Distance matrix (angstroms):
                    1          2          3          4
     1  S    0.000000
     2  O    1.633464   0.000000
     3  O    1.524241   2.603101   0.000000
     4  H    1.875919   1.062553   2.170987   0.000000
 Stoichiometry    HO2S(2)
 Framework group  C1[X(HO2S)]
 Deg. of freedom     6
 Full point group                 C1      NOp   1
 Largest Abelian subgroup         C1      NOp   1
 Largest concise Abelian subgroup C1      NOp   1
                         Standard orientation:                         
 ---------------------------------------------------------------------
 Center     Atomic      Atomic             Coordinates (Angstroms)
 Number     Number       Type             X           Y           Z
 ---------------------------------------------------------------------
      1         16           0       -0.087456   -0.478789    0.016307
      2          8           0        1.337125    0.318227   -0.043186
      3          8           0       -1.259959    0.494242   -0.025628
      4          1           0        0.781956    1.160876    0.289602
 ---------------------------------------------------------------------
 Rotational constants (GHZ):          35.3290066           9.1912067           7.3196285
 Standard basis: 6-311+G(3df) (5D, 7F)
 There are   146 symmetry adapted cartesian basis functions of A   symmetry.
 There are   128 symmetry adapted basis functions of A   symmetry.
   128 basis functions,   193 primitive gaussians,   146 cartesian basis functions
    17 alpha electrons       16 beta electrons
       nuclear repulsion energy       109.3631861931 Hartrees.
 NAtoms=    4 NActive=    4 NUniq=    4 SFac= 1.00D+00 NAtFMM=   60 NAOKFM=F Big=F
 Integral buffers will be    131072 words long.
 Raffenetti 2 integral format.
 Two-electron integral symmetry is turned on.
 One-electron integrals computed using PRISM.
 NBasis=   128 RedAO= T EigKep=  1.05D-03  NBF=   128
 NBsUse=   128 1.00D-06 EigRej= -1.00D+00 NBFU=   128
 ExpMin= 4.05D-02 ExpMax= 9.34D+04 ExpMxC= 3.17D+03 IAcc=3 IRadAn=         5 AccDes= 0.00D+00
 Harris functional with IExCor=  402 and IRadAn=       5 diagonalized for initial guess.
 HarFok:  IExCor=  402 AccDes= 0.00D+00 IRadAn=         5 IDoV= 1 UseB2=F ITyADJ=14
 ICtDFT=  3500011 ScaDFX=  1.000000  1.000000  1.000000  1.000000
 FoFCou: FMM=F IPFlag=           0 FMFlag=      100000 FMFlg1=           0
         NFxFlg=           0 DoJE=T BraDBF=F KetDBF=T FulRan=T
         wScrn=  0.000000 ICntrl=       500 IOpCl=  0 I1Cent=   200000004 NGrid=           0
         NMat0=    1 NMatS0=      1 NMatT0=    0 NMatD0=    1 NMtDS0=    0 NMtDT0=    0
 Petite list used in FoFCou.
 Initial guess <Sx>= 0.0000 <Sy>= 0.0000 <Sz>= 0.5000 <S**2>= 0.7500 S= 0.5000
 Keep R1 and R2 ints in memory in canonical form, NReq=70152787.
 Requested convergence on RMS density matrix=1.00D-08 within 128 cycles.
 Requested convergence on MAX density matrix=1.00D-06.
 Requested convergence on             energy=1.00D-06.
 No special actions if energy rises.
 SCF Done:  E(UB3LYP) =  -549.271871364     A.U. after   14 cycles
            NFock= 14  Conv=0.41D-08     -V/T= 2.0021
 <Sx>= 0.0000 <Sy>= 0.0000 <Sz>= 0.5000 <S**2>= 0.7555 S= 0.5028
 <L.S>= 0.000000000000E+00
 Annihilation of the first spin contaminant:
 S**2 before annihilation     0.7555,   after     0.7500

 **********************************************************************

            Population analysis using the SCF density.

 **********************************************************************

 Orbital symmetries:
 Alpha Orbitals:
       Occupied  (A) (A) (A) (A) (A) (A) (A) (A) (A) (A) (A) (A)
                 (A) (A) (A) (A) (A)
       Virtual   (A) (A) (A) (A) (A) (A) (A) (A) (A) (A) (A) (A)
                 (A) (A) (A) (A) (A) (A) (A) (A) (A) (A) (A) (A)
                 (A) (A) (A) (A) (A) (A) (A) (A) (A) (A) (A) (A)
                 (A) (A) (A) (A) (A) (A) (A) (A) (A) (A) (A) (A)
                 (A) (A) (A) (A) (A) (A) (A) (A) (A) (A) (A) (A)
                 (A) (A) (A) (A) (A) (A) (A) (A) (A) (A) (A) (A)
                 (A) (A) (A) (A) (A) (A) (A) (A) (A) (A) (A) (A)
                 (A) (A) (A) (A) (A) (A) (A) (A) (A) (A) (A) (A)
                 (A) (A) (A) (A) (A) (A) (A) (A) (A) (A) (A) (A)
                 (A) (A) (A)
 Beta  Orbitals:
       Occupied  (A) (A) (A) (A) (A) (A) (A) (A) (A) (A) (A) (A)
                 (A) (A) (A) (A)
       Virtual   (A) (A) (A) (A) (A) (A) (A) (A) (A) (A) (A) (A)
                 (A) (A) (A) (A) (A) (A) (A) (A) (A) (A) (A) (A)
                 (A) (A) (A) (A) (A) (A) (A) (A) (A) (A) (A) (A)
                 (A) (A) (A) (A) (A) (A) (A) (A) (A) (A) (A) (A)
                 (A) (A) (A) (A) (A) (A) (A) (A) (A) (A) (A) (A)
                 (A) (A) (A) (A) (A) (A) (A) (A) (A) (A) (A) (A)
                 (A) (A) (A) (A) (A) (A) (A) (A) (A) (A) (A) (A)
                 (A) (A) (A) (A) (A) (A) (A) (A) (A) (A) (A) (A)
                 (A) (A) (A) (A) (A) (A) (A) (A) (A) (A) (A) (A)
                 (A) (A) (A) (A)
 The electronic state is 2-A.
 Alpha  occ. eigenvalues --  -88.98974 -19.21617 -19.17254  -8.06262  -6.02608
 Alpha  occ. eigenvalues --   -6.02412  -6.02115  -1.12304  -1.03791  -0.69016
 Alpha  occ. eigenvalues --   -0.54860  -0.49664  -0.47742  -0.41905  -0.39001
 Alpha  occ. eigenvalues --   -0.34770  -0.24361
 Alpha virt. eigenvalues --   -0.03253  -0.00588   0.00044   0.03013   0.04471
 Alpha virt. eigenvalues --    0.07656   0.09842   0.14224   0.15779   0.16496
 Alpha virt. eigenvalues --    0.17890   0.19304   0.23847   0.24451   0.24987
 Alpha virt. eigenvalues --    0.28190   0.28326   0.29344   0.30195   0.31213
 Alpha virt. eigenvalues --    0.32607   0.39491   0.45545   0.57310   0.70113
 Alpha virt. eigenvalues --    0.74545   0.76907   0.80534   0.84890   0.86563
 Alpha virt. eigenvalues --    0.88526   0.88845   0.91369   0.95026   0.96962
 Alpha virt. eigenvalues --    0.97541   1.00693   1.01555   1.03871   1.06033
 Alpha virt. eigenvalues --    1.09660   1.16384   1.21346   1.22741   1.30041
 Alpha virt. eigenvalues --    1.38070   1.56924   1.58400   1.62451   1.68007
 Alpha virt. eigenvalues --    1.80503   1.90336   1.93343   1.98123   2.02685
 Alpha virt. eigenvalues --    2.12712   2.20852   2.21353   2.47553   3.27505
 Alpha virt. eigenvalues --    3.33137   3.35762   3.38275   3.40820   3.42818
 Alpha virt. eigenvalues --    3.44844   3.48105   3.56703   3.57625   4.42439
 Alpha virt. eigenvalues --    4.45931   4.47740   4.59800   4.74687   4.88880
 Alpha virt. eigenvalues --    4.91800   4.93236   4.94848   4.96254   4.97155
 Alpha virt. eigenvalues --    4.99097   4.99625   5.01885   5.07872   5.11434
 Alpha virt. eigenvalues --    5.26699   5.32349   5.39344   5.42645   5.47157
 Alpha virt. eigenvalues --    5.53207   5.66556   5.82113   6.40858   8.53051
 Alpha virt. eigenvalues --   14.17476  14.21590  14.22465  14.24009  14.26263
 Alpha virt. eigenvalues --   14.27642  14.30281  14.33459  14.45699  14.54886
 Alpha virt. eigenvalues --   17.20773  17.43442  17.63898  49.87441  49.94179
 Alpha virt. eigenvalues --  189.47278
  Beta  occ. eigenvalues --  -88.98576 -19.21289 -19.16237  -8.05901  -6.02395
  Beta  occ. eigenvalues --   -6.01932  -6.01136  -1.11347  -1.02137  -0.66581
  Beta  occ. eigenvalues --   -0.54196  -0.48909  -0.44575  -0.40131  -0.35150
  Beta  occ. eigenvalues --   -0.33665
  Beta virt. eigenvalues --   -0.12663  -0.02675  -0.00021   0.00886   0.03253
  Beta virt. eigenvalues --    0.04702   0.07854   0.10155   0.14438   0.16047
  Beta virt. eigenvalues --    0.16897   0.18265   0.19793   0.24074   0.24582
  Beta virt. eigenvalues --    0.26081   0.28761   0.29229   0.30131   0.31540
  Beta virt. eigenvalues --    0.31588   0.33126   0.40419   0.45674   0.57712
  Beta virt. eigenvalues --    0.70759   0.74835   0.77874   0.81069   0.85668
  Beta virt. eigenvalues --    0.87129   0.89579   0.90081   0.92635   0.95727
  Beta virt. eigenvalues --    0.98121   0.98274   1.01595   1.03198   1.04225
  Beta virt. eigenvalues --    1.06602   1.10458   1.17310   1.22215   1.23672
  Beta virt. eigenvalues --    1.30848   1.38329   1.60092   1.60362   1.63949
  Beta virt. eigenvalues --    1.69736   1.81423   1.91322   1.94596   2.00561
  Beta virt. eigenvalues --    2.02973   2.13189   2.21506   2.22097   2.47712
  Beta virt. eigenvalues --    3.28580   3.34587   3.38294   3.39446   3.41880
  Beta virt. eigenvalues --    3.43929   3.47073   3.49087   3.57267   3.58510
  Beta virt. eigenvalues --    4.43206   4.46174   4.48663   4.60374   4.75286
  Beta virt. eigenvalues --    4.89798   4.92911   4.94338   4.95532   4.97184
  Beta virt. eigenvalues --    5.00254   5.01156   5.01999   5.02749   5.09076
  Beta virt. eigenvalues --    5.12832   5.27544   5.32871   5.39815   5.43647
  Beta virt. eigenvalues --    5.48160   5.53929   5.68387   5.82729   6.41298
  Beta virt. eigenvalues --    8.53548  14.18900  14.23778  14.25374  14.26155
  Beta virt. eigenvalues --   14.28113  14.29145  14.33656  14.34370  14.46330
  Beta virt. eigenvalues --   14.56590  17.22456  17.43719  17.64205  49.87849
  Beta virt. eigenvalues --   49.95103 189.47638
          Condensed to atoms (all electrons):
               1          2          3          4
     1  S   15.375276  -0.038692   0.142225   0.012031
     2  O   -0.038692   8.431997  -0.001010   0.190282
     3  O    0.142225  -0.001010   8.258424   0.007281
     4  H    0.012031   0.190282   0.007281   0.310071
          Atomic-Atomic Spin Densities.
               1          2          3          4
     1  S    0.910004  -0.108096  -0.176138  -0.003849
     2  O   -0.108096   0.164214   0.017014  -0.003145
     3  O   -0.176138   0.017014   0.467119   0.000259
     4  H   -0.003849  -0.003145   0.000259   0.006575
 Mulliken charges and spin densities:
               1          2
     1  S    0.509160   0.621921
     2  O   -0.582576   0.069987
     3  O   -0.406919   0.308254
     4  H    0.480336  -0.000161
 Sum of Mulliken charges =  -0.00000   1.00000
 Mulliken charges and spin densities with hydrogens summed into heavy atoms:
               1          2
     1  S    0.509160   0.621921
     2  O   -0.102240   0.069825
     3  O   -0.406919   0.308254
 Electronic spatial extent (au):  <R**2>=            182.1486
 Charge=             -0.0000 electrons
 Dipole moment (field-independent basis, Debye):
    X=              1.0498    Y=             -0.1579    Z=              0.4983  Tot=              1.1728
 Quadrupole moment (field-independent basis, Debye-Ang):
   XX=            -28.2290   YY=            -21.7039   ZZ=            -23.9484
   XY=              1.7997   XZ=              0.3333   YZ=              0.8460
 Traceless Quadrupole moment (field-independent basis, Debye-Ang):
   XX=             -3.6019   YY=              2.9232   ZZ=              0.6787
   XY=              1.7997   XZ=              0.3333   YZ=              0.8460
 Octapole moment (field-independent basis, Debye-Ang**2):
  XXX=              0.6645  YYY=              4.2628  ZZZ=             -0.1202  XYY=              2.7538
  XXY=             -1.7378  XXZ=              0.1036  XZZ=              0.1634  YZZ=              1.0241
  YYZ=              1.0370  XYZ=              0.7200
 Hexadecapole moment (field-independent basis, Debye-Ang**3):
 XXXX=           -148.9799 YYYY=            -54.1104 ZZZZ=            -26.0761 XXXY=              0.7602
 XXXZ=             -0.1564 YYYX=              3.4841 YYYZ=              1.2991 ZZZX=              0.1034
 ZZZY=              0.5060 XXYY=            -31.3155 XXZZ=            -28.2874 YYZZ=            -14.2683
 XXYZ=              0.6927 YYXZ=              0.7483 ZZXY=              0.1913
 N-N= 1.093631861931D+02 E-N=-1.522369531244D+03  KE= 5.481155036378D+02
                          Isotropic Fermi Contact Couplings
        Atom                 a.u.       MegaHertz       Gauss      10(-4) cm-1
     1  S(33)              0.06226      21.38550       7.63088       7.13344
     2  O(17)              0.01519      -9.20944      -3.28616      -3.07194
     3  O(17)              0.03402     -20.61976      -7.35764      -6.87801
     4  H(1)               0.00006       0.26472       0.09446       0.08830
 --------------------------------------------------------
       Center         ----  Spin Dipole Couplings  ----
                      3XX-RR        3YY-RR        3ZZ-RR
 --------------------------------------------------------
     1   Atom       -1.503926     -1.617253      3.121179
     2   Atom       -0.283882     -0.254160      0.538041
     3   Atom       -0.792098     -0.793516      1.585614
     4   Atom        0.001189      0.014391     -0.015580
 --------------------------------------------------------
                        XY            XZ            YZ
 --------------------------------------------------------
     1   Atom        0.009398      0.026143      0.303726
     2   Atom        0.004233      0.034818     -0.105217
     3   Atom        0.003572      0.102180      0.069801
     4   Atom       -0.002571     -0.000654      0.004863
 --------------------------------------------------------


 ---------------------------------------------------------------------------------
              Anisotropic Spin Dipole Couplings in Principal Axis System
 ---------------------------------------------------------------------------------

       Atom             a.u.   MegaHertz   Gauss  10(-4) cm-1        Axes

              Baa    -1.6371   -67.119   -23.950   -22.389 -0.0579  0.9963 -0.0633
     1 S(33)  Bbb    -1.5036   -61.648   -21.997   -20.563  0.9983  0.0574 -0.0094
              Bcc     3.1407   128.767    45.947    42.952  0.0057  0.0637  0.9980
 
              Baa    -0.2889    20.902     7.458     6.972  0.9230 -0.3750 -0.0866
     2 O(17)  Bbb    -0.2643    19.124     6.824     6.379  0.3828  0.9180  0.1038
              Bcc     0.5532   -40.026   -14.282   -13.351  0.0406 -0.1289  0.9908
 
              Baa    -0.7968    57.653    20.572    19.231  0.9002 -0.4346 -0.0259
     3 O(17)  Bbb    -0.7953    57.546    20.534    19.195  0.4333  0.9001 -0.0450
              Bcc     1.5920  -115.199   -41.106   -38.426  0.0428  0.0293  0.9987
 
              Baa    -0.0164    -8.725    -3.113    -2.910  0.0141 -0.1551  0.9878
     4 H(1)   Bbb     0.0007     0.379     0.135     0.126  0.9836  0.1798  0.0142
              Bcc     0.0156     8.346     2.978     2.784 -0.1798  0.9714  0.1551
 

 ---------------------------------------------------------------------------------

 1\1\GINC-QCEXNOD57\SP\UB3LYP\6-311+G(3df)\H1O2S1(2)\ROOT\16-Jul-2026\0
 \\#sp b3lyp/6-311+G(3df)\\single point of HOSO\\0,2\S,0,-0.12317,-0.47
 3675,0.018424\O,0,1.348478,0.232099,-0.047462\O,0,-1.232263,0.571268,-
 0.017893\H,0,0.848997,1.107861,0.288065\\Version=ES64L-G16RevA.03\Stat
 e=2-A\HF=-549.2718714\S2=0.755539\S2-1=0.\S2A=0.750022\RMSD=4.142e-09\
 Dipole=0.4091971,-0.088091,0.1941429\Quadrupole=-2.4878206,1.985307,0.
 5025136,1.6348696,0.3014751,0.6054043\PG=C01 [X(H1O2S1)]\\@


 THE SCIENTIFIC THEORIST IS NOT TO BE ENVIED. FOR NATURE, OR MORE
 PRECISELY EXPERIMENT, IS AN INEXORABLE AND NOT VERY FRIENDLY JUDGE OF HIS
 WORK.  IT NEVER SAYS "YES" TO A THEORY. IN THE MOST FAVORABLE CASES
 IT SAYS "MAYBE", AND IN THE GREAT MAJORITY OF CASES SIMPLY "NO"...
 PROBABLY EVERY THEORY WILL SOME DAY EXPERIENCE ITS "NO" - MOST
 THEORIES, SOON AFTER CONCEPTION.  -- A.EINSTEIN, NOV 11, 1922.
 Job cpu time:       0 days  0 hours  0 minutes 16.9 seconds.
 Elapsed time:       0 days  0 hours  0 minutes  8.8 seconds.
 File lengths (MBytes):  RWF=     16 Int=      0 D2E=      0 Chk=      2 Scr=      1
 Normal termination of Gaussian 16 at Thu Jul 16 14:38:13 2026.
