 Entering Gaussian System, Link 0=g16
 Initial command:
 /soft/g16.a03/g16/l1.exe "/scr/macias/296000.qcexmaster.qcexval.uv.es_vib1_-0.40/Gau-14654.inp" -scrdir="/scr/macias/296000.qcexmaster.qcexval.uv.es_vib1_-0.40/"
 Entering Link 1 = /soft/g16.a03/g16/l1.exe PID=     14672.
  
 Copyright (c) 1988,1990,1992,1993,1995,1998,2003,2009,2016,
            Gaussian, Inc.  All Rights Reserved.
  
 This is part of the Gaussian(R) 16 program.  It is based on
 the Gaussian(R) 09 system (copyright 2009, Gaussian, Inc.),
 the Gaussian(R) 03 system (copyright 2003, Gaussian, Inc.),
 the Gaussian(R) 98 system (copyright 1998, Gaussian, Inc.),
 the Gaussian(R) 94 system (copyright 1995, Gaussian, Inc.),
 the Gaussian 92(TM) system (copyright 1992, Gaussian, Inc.),
 the Gaussian 90(TM) system (copyright 1990, Gaussian, Inc.),
 the Gaussian 88(TM) system (copyright 1988, Gaussian, Inc.),
 the Gaussian 86(TM) system (copyright 1986, Carnegie Mellon
 University), and the Gaussian 82(TM) system (copyright 1983,
 Carnegie Mellon University). Gaussian is a federally registered
 trademark of Gaussian, Inc.
  
 This software contains proprietary and confidential information,
 including trade secrets, belonging to Gaussian, Inc.
  
 This software is provided under written license and may be
 used, copied, transmitted, or stored only in accord with that
 written license.
  
 The following legend is applicable only to US Government
 contracts under FAR:
  
                    RESTRICTED RIGHTS LEGEND
  
 Use, reproduction and disclosure by the US Government is
 subject to restrictions as set forth in subparagraphs (a)
 and (c) of the Commercial Computer Software - Restricted
 Rights clause in FAR 52.227-19.
  
 Gaussian, Inc.
 340 Quinnipiac St., Bldg. 40, Wallingford CT 06492
  
  
 ---------------------------------------------------------------
 Warning -- This program may not be used in any manner that
 competes with the business of Gaussian, Inc. or will provide
 assistance to any competitor of Gaussian, Inc.  The licensee
 of this program is prohibited from giving any competitor of
 Gaussian, Inc. access to this program.  By using this program,
 the user acknowledges that Gaussian, Inc. is engaged in the
 business of creating and licensing software in the field of
 computational chemistry and represents and warrants to the
 licensee that it is not a competitor of Gaussian, Inc. and that
 it will not use this program in any manner prohibited above.
 ---------------------------------------------------------------
  

 Cite this work as:
 Gaussian 16, Revision A.03,
 M. J. Frisch, G. W. Trucks, H. B. Schlegel, G. E. Scuseria, 
 M. A. Robb, J. R. Cheeseman, G. Scalmani, V. Barone, 
 G. A. Petersson, H. Nakatsuji, X. Li, M. Caricato, A. V. Marenich, 
 J. Bloino, B. G. Janesko, R. Gomperts, B. Mennucci, H. P. Hratchian, 
 J. V. Ortiz, A. F. Izmaylov, J. L. Sonnenberg, D. Williams-Young, 
 F. Ding, F. Lipparini, F. Egidi, J. Goings, B. Peng, A. Petrone, 
 T. Henderson, D. Ranasinghe, V. G. Zakrzewski, J. Gao, N. Rega, 
 G. Zheng, W. Liang, M. Hada, M. Ehara, K. Toyota, R. Fukuda, 
 J. Hasegawa, M. Ishida, T. Nakajima, Y. Honda, O. Kitao, H. Nakai, 
 T. Vreven, K. Throssell, J. A. Montgomery, Jr., J. E. Peralta, 
 F. Ogliaro, M. J. Bearpark, J. J. Heyd, E. N. Brothers, K. N. Kudin, 
 V. N. Staroverov, T. A. Keith, R. Kobayashi, J. Normand, 
 K. Raghavachari, A. P. Rendell, J. C. Burant, S. S. Iyengar, 
 J. Tomasi, M. Cossi, J. M. Millam, M. Klene, C. Adamo, R. Cammi, 
 J. W. Ochterski, R. L. Martin, K. Morokuma, O. Farkas, 
 J. B. Foresman, and D. J. Fox, Gaussian, Inc., Wallingford CT, 2016.
 
 ******************************************
 Gaussian 16:  ES64L-G16RevA.03 25-Dec-2016
                16-Jul-2026 
 ******************************************
 %chk=opt_freq.chk
 %nproc=2
 Will use up to    2 processors via shared memory.
 %mem=2GB
 ----------------------
 #sp b3lyp/6-311+G(3df)
 ----------------------
 1/38=1,172=1/1;
 2/12=2,17=6,18=5,40=1/2;
 3/5=4,6=6,7=16,11=2,25=1,30=1,74=-5/1,2,3;
 4//1;
 5/5=2,38=5/2;
 6/7=2,8=2,9=2,10=2,28=1/1;
 99/5=1,9=1/99;
 --------------------
 single point of HOSO
 --------------------
 Symbolic Z-matrix:
 Charge =  0 Multiplicity = 2
 S                    -0.14317  -0.48568   0.00242 
 O                     1.32848   0.2561   -0.00746 
 O                    -1.18426   0.55927  -0.00189 
 H                     1.129     1.28786  -0.13994 
 
                          Input orientation:                          
 ---------------------------------------------------------------------
 Center     Atomic      Atomic             Coordinates (Angstroms)
 Number     Number       Type             X           Y           Z
 ---------------------------------------------------------------------
      1         16           0       -0.143170   -0.485675    0.002424
      2          8           0        1.328478    0.256099   -0.007462
      3          8           0       -1.184263    0.559268   -0.001893
      4          1           0        1.128997    1.287861   -0.139935
 ---------------------------------------------------------------------
                    Distance matrix (angstroms):
                    1          2          3          4
     1  S    0.000000
     2  O    1.648052   0.000000
     3  O    1.475059   2.530970   0.000000
     4  H    2.187260   1.059186   2.429213   0.000000
 Stoichiometry    HO2S(2)
 Framework group  C1[X(HO2S)]
 Deg. of freedom     6
 Full point group                 C1      NOp   1
 Largest Abelian subgroup         C1      NOp   1
 Largest concise Abelian subgroup C1      NOp   1
                         Standard orientation:                         
 ---------------------------------------------------------------------
 Center     Atomic      Atomic             Coordinates (Angstroms)
 Number     Number       Type             X           Y           Z
 ---------------------------------------------------------------------
      1         16           0        0.142766   -0.486956    0.006270
      2          8           0       -1.328576    0.255165   -0.015696
      3          8           0        1.184261    0.557495   -0.008244
      4          1           0       -1.129741    1.290013    0.091208
 ---------------------------------------------------------------------
 Rotational constants (GHZ):          33.2418825           9.5978859           7.4504970
 Standard basis: 6-311+G(3df) (5D, 7F)
 There are   146 symmetry adapted cartesian basis functions of A   symmetry.
 There are   128 symmetry adapted basis functions of A   symmetry.
   128 basis functions,   193 primitive gaussians,   146 cartesian basis functions
    17 alpha electrons       16 beta electrons
       nuclear repulsion energy       110.0115562638 Hartrees.
 NAtoms=    4 NActive=    4 NUniq=    4 SFac= 1.00D+00 NAtFMM=   60 NAOKFM=F Big=F
 Integral buffers will be    131072 words long.
 Raffenetti 2 integral format.
 Two-electron integral symmetry is turned on.
 One-electron integrals computed using PRISM.
 NBasis=   128 RedAO= T EigKep=  9.68D-04  NBF=   128
 NBsUse=   128 1.00D-06 EigRej= -1.00D+00 NBFU=   128
 ExpMin= 4.05D-02 ExpMax= 9.34D+04 ExpMxC= 3.17D+03 IAcc=3 IRadAn=         5 AccDes= 0.00D+00
 Harris functional with IExCor=  402 and IRadAn=       5 diagonalized for initial guess.
 HarFok:  IExCor=  402 AccDes= 0.00D+00 IRadAn=         5 IDoV= 1 UseB2=F ITyADJ=14
 ICtDFT=  3500011 ScaDFX=  1.000000  1.000000  1.000000  1.000000
 FoFCou: FMM=F IPFlag=           0 FMFlag=      100000 FMFlg1=           0
         NFxFlg=           0 DoJE=T BraDBF=F KetDBF=T FulRan=T
         wScrn=  0.000000 ICntrl=       500 IOpCl=  0 I1Cent=   200000004 NGrid=           0
         NMat0=    1 NMatS0=      1 NMatT0=    0 NMatD0=    1 NMtDS0=    0 NMtDT0=    0
 Petite list used in FoFCou.
 Initial guess <Sx>= 0.0000 <Sy>= 0.0000 <Sz>= 0.5000 <S**2>= 0.7500 S= 0.5000
 Keep R1 and R2 ints in memory in canonical form, NReq=70152760.
 Requested convergence on RMS density matrix=1.00D-08 within 128 cycles.
 Requested convergence on MAX density matrix=1.00D-06.
 Requested convergence on             energy=1.00D-06.
 No special actions if energy rises.
 SCF Done:  E(UB3LYP) =  -549.288117490     A.U. after   14 cycles
            NFock= 14  Conv=0.30D-08     -V/T= 2.0021
 <Sx>= 0.0000 <Sy>= 0.0000 <Sz>= 0.5000 <S**2>= 0.7552 S= 0.5026
 <L.S>= 0.000000000000E+00
 Annihilation of the first spin contaminant:
 S**2 before annihilation     0.7552,   after     0.7500

 **********************************************************************

            Population analysis using the SCF density.

 **********************************************************************

 Orbital symmetries:
 Alpha Orbitals:
       Occupied  (A) (A) (A) (A) (A) (A) (A) (A) (A) (A) (A) (A)
                 (A) (A) (A) (A) (A)
       Virtual   (A) (A) (A) (A) (A) (A) (A) (A) (A) (A) (A) (A)
                 (A) (A) (A) (A) (A) (A) (A) (A) (A) (A) (A) (A)
                 (A) (A) (A) (A) (A) (A) (A) (A) (A) (A) (A) (A)
                 (A) (A) (A) (A) (A) (A) (A) (A) (A) (A) (A) (A)
                 (A) (A) (A) (A) (A) (A) (A) (A) (A) (A) (A) (A)
                 (A) (A) (A) (A) (A) (A) (A) (A) (A) (A) (A) (A)
                 (A) (A) (A) (A) (A) (A) (A) (A) (A) (A) (A) (A)
                 (A) (A) (A) (A) (A) (A) (A) (A) (A) (A) (A) (A)
                 (A) (A) (A) (A) (A) (A) (A) (A) (A) (A) (A) (A)
                 (A) (A) (A)
 Beta  Orbitals:
       Occupied  (A) (A) (A) (A) (A) (A) (A) (A) (A) (A) (A) (A)
                 (A) (A) (A) (A)
       Virtual   (A) (A) (A) (A) (A) (A) (A) (A) (A) (A) (A) (A)
                 (A) (A) (A) (A) (A) (A) (A) (A) (A) (A) (A) (A)
                 (A) (A) (A) (A) (A) (A) (A) (A) (A) (A) (A) (A)
                 (A) (A) (A) (A) (A) (A) (A) (A) (A) (A) (A) (A)
                 (A) (A) (A) (A) (A) (A) (A) (A) (A) (A) (A) (A)
                 (A) (A) (A) (A) (A) (A) (A) (A) (A) (A) (A) (A)
                 (A) (A) (A) (A) (A) (A) (A) (A) (A) (A) (A) (A)
                 (A) (A) (A) (A) (A) (A) (A) (A) (A) (A) (A) (A)
                 (A) (A) (A) (A) (A) (A) (A) (A) (A) (A) (A) (A)
                 (A) (A) (A) (A)
 The electronic state is 2-A.
 Alpha  occ. eigenvalues --  -88.98404 -19.20018 -19.16352  -8.05717  -6.02097
 Alpha  occ. eigenvalues --   -6.01872  -6.01540  -1.11142  -1.03788  -0.69453
 Alpha  occ. eigenvalues --   -0.53398  -0.48228  -0.47524  -0.42036  -0.38620
 Alpha  occ. eigenvalues --   -0.34359  -0.23331
 Alpha virt. eigenvalues --   -0.03506  -0.00191   0.01143   0.02951   0.04562
 Alpha virt. eigenvalues --    0.07437   0.11338   0.14689   0.16408   0.16859
 Alpha virt. eigenvalues --    0.18670   0.19950   0.23313   0.24605   0.25416
 Alpha virt. eigenvalues --    0.28159   0.28811   0.29486   0.30938   0.32242
 Alpha virt. eigenvalues --    0.33212   0.41710   0.44186   0.60153   0.69710
 Alpha virt. eigenvalues --    0.71963   0.79001   0.79315   0.86377   0.87682
 Alpha virt. eigenvalues --    0.88405   0.88673   0.91740   0.94215   0.96295
 Alpha virt. eigenvalues --    1.00039   1.00830   1.03016   1.04838   1.07707
 Alpha virt. eigenvalues --    1.12216   1.19962   1.23253   1.27433   1.29699
 Alpha virt. eigenvalues --    1.32786   1.57095   1.58761   1.65075   1.70568
 Alpha virt. eigenvalues --    1.83069   1.92880   1.96721   1.99092   2.03258
 Alpha virt. eigenvalues --    2.10891   2.22378   2.25946   2.38375   3.28159
 Alpha virt. eigenvalues --    3.33082   3.36373   3.39118   3.40987   3.45930
 Alpha virt. eigenvalues --    3.46469   3.48900   3.58766   3.59913   4.43031
 Alpha virt. eigenvalues --    4.46662   4.50139   4.58816   4.79551   4.89624
 Alpha virt. eigenvalues --    4.92629   4.93765   4.95221   4.95831   4.97366
 Alpha virt. eigenvalues --    4.99811   5.00426   5.05138   5.12381   5.14431
 Alpha virt. eigenvalues --    5.24324   5.33447   5.41573   5.42181   5.52551
 Alpha virt. eigenvalues --    5.56747   5.73204   5.86655   6.44947   8.61235
 Alpha virt. eigenvalues --   14.18527  14.22049  14.23583  14.25817  14.27236
 Alpha virt. eigenvalues --   14.29914  14.32083  14.35209  14.47240  14.57593
 Alpha virt. eigenvalues --   17.21660  17.47266  17.72485  49.87633  49.96005
 Alpha virt. eigenvalues --  189.57303
  Beta  occ. eigenvalues --  -88.98009 -19.19696 -19.15369  -8.05357  -6.01886
  Beta  occ. eigenvalues --   -6.01355  -6.00605  -1.09938  -1.02492  -0.67236
  Beta  occ. eigenvalues --   -0.52472  -0.47657  -0.43680  -0.40751  -0.34946
  Beta  occ. eigenvalues --   -0.33348
  Beta virt. eigenvalues --   -0.11630  -0.03036   0.00195   0.01966   0.03433
  Beta virt. eigenvalues --    0.04791   0.07570   0.11638   0.14937   0.16877
  Beta virt. eigenvalues --    0.17068   0.19415   0.20067   0.23522   0.24674
  Beta virt. eigenvalues --    0.26733   0.28479   0.29438   0.30689   0.32549
  Beta virt. eigenvalues --    0.32964   0.33398   0.42329   0.44393   0.60586
  Beta virt. eigenvalues --    0.70306   0.72363   0.79524   0.80339   0.87365
  Beta virt. eigenvalues --    0.87946   0.89490   0.90050   0.93012   0.94649
  Beta virt. eigenvalues --    0.97280   1.01011   1.03033   1.03349   1.05105
  Beta virt. eigenvalues --    1.08374   1.13578   1.20307   1.24798   1.27727
  Beta virt. eigenvalues --    1.30456   1.33084   1.60530   1.60623   1.66673
  Beta virt. eigenvalues --    1.72249   1.83837   1.94494   1.97466   2.01570
  Beta virt. eigenvalues --    2.03367   2.11276   2.22878   2.26831   2.38716
  Beta virt. eigenvalues --    3.29320   3.34623   3.38738   3.40228   3.42374
  Beta virt. eigenvalues --    3.47189   3.48212   3.49482   3.59162   3.61042
  Beta virt. eigenvalues --    4.43820   4.46815   4.51168   4.59358   4.80194
  Beta virt. eigenvalues --    4.90574   4.93837   4.94409   4.96026   4.96551
  Beta virt. eigenvalues --    5.01174   5.02061   5.02399   5.05743   5.13380
  Beta virt. eigenvalues --    5.15791   5.25066   5.33988   5.42221   5.43095
  Beta virt. eigenvalues --    5.53020   5.57868   5.75024   5.87167   6.45368
  Beta virt. eigenvalues --    8.61729  14.20054  14.24408  14.26834  14.27487
  Beta virt. eigenvalues --   14.29142  14.30892  14.35518  14.35922  14.47785
  Beta virt. eigenvalues --   14.59304  17.23337  17.47558  17.72786  49.87970
  Beta virt. eigenvalues --   49.96961 189.57660
          Condensed to atoms (all electrons):
               1          2          3          4
     1  S   15.322006   0.002609   0.132447   0.011464
     2  O    0.002609   8.397345   0.003619   0.193976
     3  O    0.132447   0.003619   8.258750   0.003304
     4  H    0.011464   0.193976   0.003304   0.327061
          Atomic-Atomic Spin Densities.
               1          2          3          4
     1  S    0.937460  -0.109262  -0.191773   0.001649
     2  O   -0.109262   0.163059   0.020414  -0.001930
     3  O   -0.191773   0.020414   0.465906  -0.001499
     4  H    0.001649  -0.001930  -0.001499  -0.001624
 Mulliken charges and spin densities:
               1          2
     1  S    0.531474   0.638075
     2  O   -0.597549   0.072281
     3  O   -0.398119   0.293048
     4  H    0.464194  -0.003404
 Sum of Mulliken charges =  -0.00000   1.00000
 Mulliken charges and spin densities with hydrogens summed into heavy atoms:
               1          2
     1  S    0.531474   0.638075
     2  O   -0.133355   0.068877
     3  O   -0.398119   0.293048
 Electronic spatial extent (au):  <R**2>=            180.2643
 Charge=             -0.0000 electrons
 Dipole moment (field-independent basis, Debye):
    X=             -1.0908    Y=              0.1122    Z=              0.1819  Tot=              1.1116
 Quadrupole moment (field-independent basis, Debye-Ang):
   XX=            -27.3848   YY=            -20.8368   ZZ=            -24.1104
   XY=             -3.2976   XZ=             -0.2054   YZ=              0.3071
 Traceless Quadrupole moment (field-independent basis, Debye-Ang):
   XX=             -3.2741   YY=              3.2739   ZZ=              0.0003
   XY=             -3.2976   XZ=             -0.2054   YZ=              0.3071
 Octapole moment (field-independent basis, Debye-Ang**2):
  XXX=             -0.3546  YYY=              5.8956  ZZZ=             -0.0398  XYY=             -4.7864
  XXY=              0.4191  XXZ=              0.2223  XZZ=              0.2212  YZZ=              0.9812
  YYZ=              0.3902  XYZ=             -0.3456
 Hexadecapole moment (field-independent basis, Debye-Ang**3):
 XXXX=           -146.1237 YYYY=            -53.6434 ZZZZ=            -25.8665 XXXY=             -4.7566
 XXXZ=             -0.2554 YYYX=             -6.7333 YYYZ=              0.5700 ZZZX=             -0.0841
 ZZZY=              0.1744 XXYY=            -27.9412 XXZZ=            -27.9899 YYZZ=            -14.9057
 XXYZ=              0.4463 YYXZ=             -0.4384 ZZXY=             -0.1312
 N-N= 1.100115562638D+02 E-N=-1.523934035987D+03  KE= 5.481617109764D+02
                          Isotropic Fermi Contact Couplings
        Atom                 a.u.       MegaHertz       Gauss      10(-4) cm-1
     1  S(33)              0.05532      19.00184       6.78033       6.33833
     2  O(17)              0.01420      -8.60535      -3.07060      -2.87044
     3  O(17)              0.03482     -21.10823      -7.53194      -7.04095
     4  H(1)              -0.00187      -8.34676      -2.97833      -2.78418
 --------------------------------------------------------
       Center         ----  Spin Dipole Couplings  ----
                      3XX-RR        3YY-RR        3ZZ-RR
 --------------------------------------------------------
     1   Atom       -1.494396     -1.616400      3.110796
     2   Atom       -0.278868     -0.254116      0.532984
     3   Atom       -0.772706     -0.773027      1.545733
     4   Atom       -0.007623      0.019264     -0.011641
 --------------------------------------------------------
                        XY            XZ            YZ
 --------------------------------------------------------
     1   Atom       -0.001380      0.019266      0.069479
     2   Atom       -0.009774     -0.010439     -0.048599
     3   Atom       -0.000137     -0.026764      0.010586
     4   Atom       -0.002423     -0.000270      0.001696
 --------------------------------------------------------


 ---------------------------------------------------------------------------------
              Anisotropic Spin Dipole Couplings in Principal Axis System
 ---------------------------------------------------------------------------------

       Atom             a.u.   MegaHertz   Gauss  10(-4) cm-1        Axes

              Baa    -1.6174   -66.314   -23.662   -22.120  0.0135  0.9998 -0.0147
     1 S(33)  Bbb    -1.4945   -61.271   -21.863   -20.438  0.9999 -0.0136 -0.0040
              Bcc     3.1119   127.585    45.525    42.558  0.0042  0.0147  0.9999
 
              Baa    -0.2831    20.488     7.310     6.834  0.9286  0.3695  0.0339
     2 O(17)  Bbb    -0.2530    18.304     6.531     6.105 -0.3708  0.9272  0.0524
              Bcc     0.5361   -38.791   -13.842   -12.939 -0.0120 -0.0612  0.9981
 
              Baa    -0.7731    55.939    19.961    18.659  0.2217  0.9751 -0.0019
     3 O(17)  Bbb    -0.7730    55.935    19.959    18.658  0.9751 -0.2216  0.0123
              Bcc     1.5461  -111.874   -39.919   -37.317 -0.0115  0.0046  0.9999
 
              Baa    -0.0117    -6.263    -2.235    -2.089  0.0350 -0.0518  0.9980
     4 H(1)   Bbb    -0.0078    -4.181    -1.492    -1.395  0.9954  0.0909 -0.0302
              Bcc     0.0196    10.444     3.727     3.484 -0.0891  0.9945  0.0548
 

 ---------------------------------------------------------------------------------

 1\1\GINC-QCEXNOD57\SP\UB3LYP\6-311+G(3df)\H1O2S1(2)\ROOT\16-Jul-2026\0
 \\#sp b3lyp/6-311+G(3df)\\single point of HOSO\\0,2\S,0,-0.14317,-0.48
 5675,0.002424\O,0,1.328478,0.256099,-0.007462\O,0,-1.184263,0.559268,-
 0.001893\H,0,1.128997,1.287861,-0.139935\\Version=ES64L-G16RevA.03\Sta
 te=2-A\HF=-549.2881175\S2=0.755216\S2-1=0.\S2A=0.750019\RMSD=2.974e-09
 \Dipole=0.428564,0.0420492,-0.0763013\Quadrupole=-2.435477,2.418106,0.
 017371,2.4465009,-0.1969649,-0.3124789\PG=C01 [X(H1O2S1)]\\@


 This summer one third of the nation will be ill-housed
 ill-nourished and ill-clad. Only they call it a vacation.
 -- Jonas Salk
 Job cpu time:       0 days  0 hours  0 minutes 17.4 seconds.
 Elapsed time:       0 days  0 hours  0 minutes  9.1 seconds.
 File lengths (MBytes):  RWF=     16 Int=      0 D2E=      0 Chk=      2 Scr=      1
 Normal termination of Gaussian 16 at Thu Jul 16 14:38:03 2026.
