 Entering Gaussian System, Link 0=g16
 Initial command:
 /soft/g16.a03/g16/l1.exe "/scr/macias/296011.qcexmaster.qcexval.uv.es_vib2_0.10/Gau-14995.inp" -scrdir="/scr/macias/296011.qcexmaster.qcexval.uv.es_vib2_0.10/"
 Entering Link 1 = /soft/g16.a03/g16/l1.exe PID=     14996.
  
 Copyright (c) 1988,1990,1992,1993,1995,1998,2003,2009,2016,
            Gaussian, Inc.  All Rights Reserved.
  
 This is part of the Gaussian(R) 16 program.  It is based on
 the Gaussian(R) 09 system (copyright 2009, Gaussian, Inc.),
 the Gaussian(R) 03 system (copyright 2003, Gaussian, Inc.),
 the Gaussian(R) 98 system (copyright 1998, Gaussian, Inc.),
 the Gaussian(R) 94 system (copyright 1995, Gaussian, Inc.),
 the Gaussian 92(TM) system (copyright 1992, Gaussian, Inc.),
 the Gaussian 90(TM) system (copyright 1990, Gaussian, Inc.),
 the Gaussian 88(TM) system (copyright 1988, Gaussian, Inc.),
 the Gaussian 86(TM) system (copyright 1986, Carnegie Mellon
 University), and the Gaussian 82(TM) system (copyright 1983,
 Carnegie Mellon University). Gaussian is a federally registered
 trademark of Gaussian, Inc.
  
 This software contains proprietary and confidential information,
 including trade secrets, belonging to Gaussian, Inc.
  
 This software is provided under written license and may be
 used, copied, transmitted, or stored only in accord with that
 written license.
  
 The following legend is applicable only to US Government
 contracts under FAR:
  
                    RESTRICTED RIGHTS LEGEND
  
 Use, reproduction and disclosure by the US Government is
 subject to restrictions as set forth in subparagraphs (a)
 and (c) of the Commercial Computer Software - Restricted
 Rights clause in FAR 52.227-19.
  
 Gaussian, Inc.
 340 Quinnipiac St., Bldg. 40, Wallingford CT 06492
  
  
 ---------------------------------------------------------------
 Warning -- This program may not be used in any manner that
 competes with the business of Gaussian, Inc. or will provide
 assistance to any competitor of Gaussian, Inc.  The licensee
 of this program is prohibited from giving any competitor of
 Gaussian, Inc. access to this program.  By using this program,
 the user acknowledges that Gaussian, Inc. is engaged in the
 business of creating and licensing software in the field of
 computational chemistry and represents and warrants to the
 licensee that it is not a competitor of Gaussian, Inc. and that
 it will not use this program in any manner prohibited above.
 ---------------------------------------------------------------
  

 Cite this work as:
 Gaussian 16, Revision A.03,
 M. J. Frisch, G. W. Trucks, H. B. Schlegel, G. E. Scuseria, 
 M. A. Robb, J. R. Cheeseman, G. Scalmani, V. Barone, 
 G. A. Petersson, H. Nakatsuji, X. Li, M. Caricato, A. V. Marenich, 
 J. Bloino, B. G. Janesko, R. Gomperts, B. Mennucci, H. P. Hratchian, 
 J. V. Ortiz, A. F. Izmaylov, J. L. Sonnenberg, D. Williams-Young, 
 F. Ding, F. Lipparini, F. Egidi, J. Goings, B. Peng, A. Petrone, 
 T. Henderson, D. Ranasinghe, V. G. Zakrzewski, J. Gao, N. Rega, 
 G. Zheng, W. Liang, M. Hada, M. Ehara, K. Toyota, R. Fukuda, 
 J. Hasegawa, M. Ishida, T. Nakajima, Y. Honda, O. Kitao, H. Nakai, 
 T. Vreven, K. Throssell, J. A. Montgomery, Jr., J. E. Peralta, 
 F. Ogliaro, M. J. Bearpark, J. J. Heyd, E. N. Brothers, K. N. Kudin, 
 V. N. Staroverov, T. A. Keith, R. Kobayashi, J. Normand, 
 K. Raghavachari, A. P. Rendell, J. C. Burant, S. S. Iyengar, 
 J. Tomasi, M. Cossi, J. M. Millam, M. Klene, C. Adamo, R. Cammi, 
 J. W. Ochterski, R. L. Martin, K. Morokuma, O. Farkas, 
 J. B. Foresman, and D. J. Fox, Gaussian, Inc., Wallingford CT, 2016.
 
 ******************************************
 Gaussian 16:  ES64L-G16RevA.03 25-Dec-2016
                16-Jul-2026 
 ******************************************
 %chk=opt_freq.chk
 %nproc=2
 Will use up to    2 processors via shared memory.
 %mem=2GB
 ----------------------
 #sp b3lyp/6-311+G(3df)
 ----------------------
 1/38=1,172=1/1;
 2/12=2,17=6,18=5,40=1/2;
 3/5=4,6=6,7=16,11=2,25=1,30=1,74=-5/1,2,3;
 4//1;
 5/5=2,38=5/2;
 6/7=2,8=2,9=2,10=2,28=1/1;
 99/5=1,9=1/99;
 --------------------
 single point of HOSO
 --------------------
 Symbolic Z-matrix:
 Charge =  0 Multiplicity = 2
 S                    -0.14217  -0.45968   0.01242 
 O                     1.35648   0.2381   -0.03446 
 O                    -1.23026   0.53327  -0.01589 
 H                     1.305     1.18386   0.18607 
 
                          Input orientation:                          
 ---------------------------------------------------------------------
 Center     Atomic      Atomic             Coordinates (Angstroms)
 Number     Number       Type             X           Y           Z
 ---------------------------------------------------------------------
      1         16           0       -0.142170   -0.459675    0.012424
      2          8           0        1.356478    0.238099   -0.034462
      3          8           0       -1.230263    0.533268   -0.015893
      4          1           0        1.304997    1.183861    0.186065
 ---------------------------------------------------------------------
                    Distance matrix (angstroms):
                    1          2          3          4
     1  S    0.000000
     2  O    1.653793   0.000000
     3  O    1.473324   2.603593   0.000000
     4  H    2.196737   0.972496   2.625186   0.000000
 Stoichiometry    HO2S(2)
 Framework group  C1[X(HO2S)]
 Deg. of freedom     6
 Full point group                 C1      NOp   1
 Largest Abelian subgroup         C1      NOp   1
 Largest concise Abelian subgroup C1      NOp   1
                         Standard orientation:                         
 ---------------------------------------------------------------------
 Center     Atomic      Atomic             Coordinates (Angstroms)
 Number     Number       Type             X           Y           Z
 ---------------------------------------------------------------------
      1         16           0       -0.141787   -0.460178    0.012674
      2          8           0        1.354435    0.242823   -0.033629
      3          8           0       -1.233317    0.528999   -0.015152
      4          1           0        1.299648    1.188266    0.187469
 ---------------------------------------------------------------------
 Rotational constants (GHZ):          37.1728373           9.0075239           7.2624246
 Standard basis: 6-311+G(3df) (5D, 7F)
 There are   146 symmetry adapted cartesian basis functions of A   symmetry.
 There are   128 symmetry adapted basis functions of A   symmetry.
   128 basis functions,   193 primitive gaussians,   146 cartesian basis functions
    17 alpha electrons       16 beta electrons
       nuclear repulsion energy       109.7591783085 Hartrees.
 NAtoms=    4 NActive=    4 NUniq=    4 SFac= 1.00D+00 NAtFMM=   60 NAOKFM=F Big=F
 Integral buffers will be    131072 words long.
 Raffenetti 2 integral format.
 Two-electron integral symmetry is turned on.
 One-electron integrals computed using PRISM.
 NBasis=   128 RedAO= T EigKep=  9.35D-04  NBF=   128
 NBsUse=   128 1.00D-06 EigRej= -1.00D+00 NBFU=   128
 ExpMin= 4.05D-02 ExpMax= 9.34D+04 ExpMxC= 3.17D+03 IAcc=3 IRadAn=         5 AccDes= 0.00D+00
 Harris functional with IExCor=  402 and IRadAn=       5 diagonalized for initial guess.
 HarFok:  IExCor=  402 AccDes= 0.00D+00 IRadAn=         5 IDoV= 1 UseB2=F ITyADJ=14
 ICtDFT=  3500011 ScaDFX=  1.000000  1.000000  1.000000  1.000000
 FoFCou: FMM=F IPFlag=           0 FMFlag=      100000 FMFlg1=           0
         NFxFlg=           0 DoJE=T BraDBF=F KetDBF=T FulRan=T
         wScrn=  0.000000 ICntrl=       500 IOpCl=  0 I1Cent=   200000004 NGrid=           0
         NMat0=    1 NMatS0=      1 NMatT0=    0 NMatD0=    1 NMtDS0=    0 NMtDT0=    0
 Petite list used in FoFCou.
 Initial guess <Sx>= 0.0000 <Sy>= 0.0000 <Sz>= 0.5000 <S**2>= 0.7500 S= 0.5000
 Keep R1 and R2 ints in memory in canonical form, NReq=70152731.
 Requested convergence on RMS density matrix=1.00D-08 within 128 cycles.
 Requested convergence on MAX density matrix=1.00D-06.
 Requested convergence on             energy=1.00D-06.
 No special actions if energy rises.
 SCF Done:  E(UB3LYP) =  -549.293261159     A.U. after   14 cycles
            NFock= 14  Conv=0.33D-08     -V/T= 2.0019
 <Sx>= 0.0000 <Sy>= 0.0000 <Sz>= 0.5000 <S**2>= 0.7553 S= 0.5026
 <L.S>= 0.000000000000E+00
 Annihilation of the first spin contaminant:
 S**2 before annihilation     0.7553,   after     0.7500

 **********************************************************************

            Population analysis using the SCF density.

 **********************************************************************

 Orbital symmetries:
 Alpha Orbitals:
       Occupied  (A) (A) (A) (A) (A) (A) (A) (A) (A) (A) (A) (A)
                 (A) (A) (A) (A) (A)
       Virtual   (A) (A) (A) (A) (A) (A) (A) (A) (A) (A) (A) (A)
                 (A) (A) (A) (A) (A) (A) (A) (A) (A) (A) (A) (A)
                 (A) (A) (A) (A) (A) (A) (A) (A) (A) (A) (A) (A)
                 (A) (A) (A) (A) (A) (A) (A) (A) (A) (A) (A) (A)
                 (A) (A) (A) (A) (A) (A) (A) (A) (A) (A) (A) (A)
                 (A) (A) (A) (A) (A) (A) (A) (A) (A) (A) (A) (A)
                 (A) (A) (A) (A) (A) (A) (A) (A) (A) (A) (A) (A)
                 (A) (A) (A) (A) (A) (A) (A) (A) (A) (A) (A) (A)
                 (A) (A) (A) (A) (A) (A) (A) (A) (A) (A) (A) (A)
                 (A) (A) (A)
 Beta  Orbitals:
       Occupied  (A) (A) (A) (A) (A) (A) (A) (A) (A) (A) (A) (A)
                 (A) (A) (A) (A)
       Virtual   (A) (A) (A) (A) (A) (A) (A) (A) (A) (A) (A) (A)
                 (A) (A) (A) (A) (A) (A) (A) (A) (A) (A) (A) (A)
                 (A) (A) (A) (A) (A) (A) (A) (A) (A) (A) (A) (A)
                 (A) (A) (A) (A) (A) (A) (A) (A) (A) (A) (A) (A)
                 (A) (A) (A) (A) (A) (A) (A) (A) (A) (A) (A) (A)
                 (A) (A) (A) (A) (A) (A) (A) (A) (A) (A) (A) (A)
                 (A) (A) (A) (A) (A) (A) (A) (A) (A) (A) (A) (A)
                 (A) (A) (A) (A) (A) (A) (A) (A) (A) (A) (A) (A)
                 (A) (A) (A) (A) (A) (A) (A) (A) (A) (A) (A) (A)
                 (A) (A) (A) (A)
 The electronic state is 2-A.
 Alpha  occ. eigenvalues --  -88.98366 -19.19544 -19.16616  -8.05653  -6.02043
 Alpha  occ. eigenvalues --   -6.01800  -6.01473  -1.11383  -1.04959  -0.70677
 Alpha  occ. eigenvalues --   -0.54448  -0.48007  -0.47352  -0.42187  -0.38879
 Alpha  occ. eigenvalues --   -0.34570  -0.23379
 Alpha virt. eigenvalues --   -0.02936  -0.00042   0.01380   0.03680   0.04662
 Alpha virt. eigenvalues --    0.07831   0.11431   0.14792   0.16393   0.17137
 Alpha virt. eigenvalues --    0.18596   0.20683   0.23014   0.24721   0.25234
 Alpha virt. eigenvalues --    0.27988   0.28647   0.29740   0.30933   0.31673
 Alpha virt. eigenvalues --    0.33145   0.43143   0.48029   0.59337   0.70839
 Alpha virt. eigenvalues --    0.72863   0.77928   0.80512   0.85807   0.88241
 Alpha virt. eigenvalues --    0.89239   0.89689   0.91203   0.93145   0.95999
 Alpha virt. eigenvalues --    1.00321   1.01012   1.02509   1.05375   1.07488
 Alpha virt. eigenvalues --    1.12225   1.16603   1.23863   1.29692   1.31832
 Alpha virt. eigenvalues --    1.33763   1.57228   1.58614   1.65025   1.70361
 Alpha virt. eigenvalues --    1.81964   1.92161   1.96325   1.99542   2.02620
 Alpha virt. eigenvalues --    2.10808   2.23187   2.25452   2.35440   3.28262
 Alpha virt. eigenvalues --    3.32081   3.35926   3.38908   3.40333   3.45658
 Alpha virt. eigenvalues --    3.47914   3.54493   3.60232   3.61059   4.42885
 Alpha virt. eigenvalues --    4.46821   4.50349   4.58090   4.79451   4.88592
 Alpha virt. eigenvalues --    4.92527   4.94730   4.95060   4.96567   4.97559
 Alpha virt. eigenvalues --    4.99584   5.01032   5.05121   5.11323   5.14110
 Alpha virt. eigenvalues --    5.30331   5.34491   5.40225   5.45703   5.54961
 Alpha virt. eigenvalues --    5.62043   5.73513   5.88232   6.39387   8.61808
 Alpha virt. eigenvalues --   14.18867  14.21564  14.23051  14.25987  14.27325
 Alpha virt. eigenvalues --   14.31731  14.33682  14.36048  14.46920  14.57711
 Alpha virt. eigenvalues --   17.21701  17.44209  17.73745  49.87637  49.96326
 Alpha virt. eigenvalues --  189.57139
  Beta  occ. eigenvalues --  -88.97971 -19.19239 -19.15607  -8.05293  -6.01831
  Beta  occ. eigenvalues --   -6.01290  -6.00532  -1.10252  -1.03583  -0.68625
  Beta  occ. eigenvalues --   -0.53325  -0.47318  -0.43816  -0.40623  -0.35386
  Beta  occ. eigenvalues --   -0.33484
  Beta virt. eigenvalues --   -0.11619  -0.02323   0.00426   0.02015   0.04117
  Beta virt. eigenvalues --    0.04935   0.08023   0.11631   0.15044   0.16799
  Beta virt. eigenvalues --    0.17394   0.19272   0.20898   0.23314   0.24784
  Beta virt. eigenvalues --    0.26428   0.28484   0.29033   0.31001   0.32128
  Beta virt. eigenvalues --    0.32630   0.33554   0.43781   0.48179   0.59787
  Beta virt. eigenvalues --    0.71427   0.73247   0.78899   0.81111   0.86746
  Beta virt. eigenvalues --    0.88640   0.90094   0.91254   0.92061   0.94288
  Beta virt. eigenvalues --    0.96986   1.00946   1.02638   1.03363   1.05732
  Beta virt. eigenvalues --    1.08148   1.13589   1.17023   1.25376   1.30474
  Beta virt. eigenvalues --    1.32102   1.34106   1.60387   1.60722   1.66542
  Beta virt. eigenvalues --    1.72046   1.82791   1.93689   1.97274   2.01966
  Beta virt. eigenvalues --    2.02631   2.11208   2.23615   2.26248   2.35987
  Beta virt. eigenvalues --    3.29265   3.33630   3.38540   3.39805   3.41581
  Beta virt. eigenvalues --    3.48126   3.48862   3.55176   3.61270   3.61339
  Beta virt. eigenvalues --    4.43672   4.47031   4.51383   4.58591   4.80082
  Beta virt. eigenvalues --    4.89376   4.93680   4.95308   4.95887   4.97708
  Beta virt. eigenvalues --    5.01329   5.01912   5.02713   5.05988   5.12329
  Beta virt. eigenvalues --    5.15538   5.30982   5.35031   5.41146   5.46442
  Beta virt. eigenvalues --    5.55938   5.62448   5.75343   5.88820   6.39806
  Beta virt. eigenvalues --    8.62305  14.20234  14.23957  14.26331  14.27740
  Beta virt. eigenvalues --   14.29431  14.34153  14.35396  14.37024  14.47419
  Beta virt. eigenvalues --   14.59401  17.23375  17.44494  17.74051  49.87987
  Beta virt. eigenvalues --   49.97277 189.57496
          Condensed to atoms (all electrons):
               1          2          3          4
     1  S   15.372845  -0.030342   0.119192   0.011942
     2  O   -0.030342   8.438615   0.012318   0.196649
     3  O    0.119192   0.012318   8.251154  -0.001175
     4  H    0.011942   0.196649  -0.001175   0.320218
          Atomic-Atomic Spin Densities.
               1          2          3          4
     1  S    0.931242  -0.103373  -0.192920  -0.000129
     2  O   -0.103373   0.155557   0.017470  -0.003331
     3  O   -0.192920   0.017470   0.476247  -0.000847
     4  H   -0.000129  -0.003331  -0.000847   0.003212
 Mulliken charges and spin densities:
               1          2
     1  S    0.526363   0.634820
     2  O   -0.617240   0.066323
     3  O   -0.381489   0.299950
     4  H    0.472366  -0.001094
 Sum of Mulliken charges =  -0.00000   1.00000
 Mulliken charges and spin densities with hydrogens summed into heavy atoms:
               1          2
     1  S    0.526363   0.634820
     2  O   -0.144874   0.065229
     3  O   -0.381489   0.299950
 Electronic spatial extent (au):  <R**2>=            183.6345
 Charge=              0.0000 electrons
 Dipole moment (field-independent basis, Debye):
    X=              1.2850    Y=              0.1891    Z=              0.3913  Tot=              1.3565
 Quadrupole moment (field-independent basis, Debye-Ang):
   XX=            -26.9238   YY=            -21.2126   ZZ=            -23.9520
   XY=              3.5675   XZ=              0.5294   YZ=              0.6120
 Traceless Quadrupole moment (field-independent basis, Debye-Ang):
   XX=             -2.8943   YY=              2.8169   ZZ=              0.0774
   XY=              3.5675   XZ=              0.5294   YZ=              0.6120
 Octapole moment (field-independent basis, Debye-Ang**2):
  XXX=              1.6847  YYY=              5.1545  ZZZ=             -0.0300  XYY=              4.8019
  XXY=              1.4570  XXZ=              0.7122  XZZ=             -0.0598  YZZ=              1.1149
  YYZ=              0.7213  XYZ=              0.7816
 Hexadecapole moment (field-independent basis, Debye-Ang**3):
 XXXX=           -151.5152 YYYY=            -51.0781 ZZZZ=            -25.8470 XXXY=              6.9631
 XXXZ=              1.0310 YYYX=              6.6807 YYYZ=              1.0147 ZZZX=              0.2747
 ZZZY=              0.4140 XXYY=            -27.7442 XXZZ=            -28.9573 YYZZ=            -14.0060
 XXYZ=              1.1435 YYXZ=              0.9295 ZZXY=              0.3719
 N-N= 1.097591783085D+02 E-N=-1.523464423523D+03  KE= 5.482723754880D+02
                          Isotropic Fermi Contact Couplings
        Atom                 a.u.       MegaHertz       Gauss      10(-4) cm-1
     1  S(33)              0.05781      19.85492       7.08473       6.62289
     2  O(17)              0.01634      -9.90417      -3.53406      -3.30368
     3  O(17)              0.03537     -21.44310      -7.65143      -7.15265
     4  H(1)              -0.00060      -2.67001      -0.95272      -0.89062
 --------------------------------------------------------
       Center         ----  Spin Dipole Couplings  ----
                      3XX-RR        3YY-RR        3ZZ-RR
 --------------------------------------------------------
     1   Atom       -1.492749     -1.618175      3.110924
     2   Atom       -0.263278     -0.236591      0.499869
     3   Atom       -0.789621     -0.794892      1.584513
     4   Atom       -0.010627      0.021594     -0.010967
 --------------------------------------------------------
                        XY            XZ            YZ
 --------------------------------------------------------
     1   Atom        0.001263     -0.043735      0.144229
     2   Atom        0.013009      0.004926     -0.092781
     3   Atom       -0.000392      0.064286      0.035342
     4   Atom        0.005700      0.000935      0.003613
 --------------------------------------------------------


 ---------------------------------------------------------------------------------
              Anisotropic Spin Dipole Couplings in Principal Axis System
 ---------------------------------------------------------------------------------

       Atom             a.u.   MegaHertz   Gauss  10(-4) cm-1        Axes

              Baa    -1.6226   -66.526   -23.738   -22.191 -0.0200  0.9993 -0.0306
     1 S(33)  Bbb    -1.4931   -61.216   -21.843   -20.420  0.9998  0.0203  0.0089
              Bcc     3.1157   127.742    45.582    42.610 -0.0095  0.0304  0.9995
 
              Baa    -0.2712    19.624     7.002     6.546  0.8631 -0.5007 -0.0658
     2 O(17)  Bbb    -0.2402    17.380     6.202     5.797  0.5050  0.8568  0.1041
              Bcc     0.5114   -37.004   -13.204   -12.343  0.0042 -0.1230  0.9924
 
              Baa    -0.7958    57.585    20.548    19.208  0.2886  0.9572 -0.0220
     3 O(17)  Bbb    -0.7910    57.233    20.422    19.091  0.9571 -0.2891 -0.0216
              Bcc     1.5868  -114.818   -40.970   -38.299  0.0270  0.0148  0.9995
 
              Baa    -0.0118    -6.306    -2.250    -2.104  0.8202 -0.0787 -0.5666
     4 H(1)   Bbb    -0.0112    -5.955    -2.125    -1.986  0.5464 -0.1852  0.8168
              Bcc     0.0230    12.261     4.375     4.090  0.1692  0.9795  0.1089
 

 ---------------------------------------------------------------------------------

 1\1\GINC-QCEXNOD57\SP\UB3LYP\6-311+G(3df)\H1O2S1(2)\ROOT\16-Jul-2026\0
 \\#sp b3lyp/6-311+G(3df)\\single point of HOSO\\0,2\S,0,-0.14217,-0.45
 9675,0.012424\O,0,1.356478,0.238099,-0.034462\O,0,-1.230263,0.533268,-
 0.015893\H,0,1.304997,1.183861,0.186065\\Version=ES64L-G16RevA.03\Stat
 e=2-A\HF=-549.2932612\S2=0.755298\S2-1=0.\S2A=0.75002\RMSD=3.250e-09\D
 ipole=0.5058179,0.0727313,0.1538435\Quadrupole=-2.1332893,2.0763448,0.
 0569445,2.6673125,0.3937528,0.4521439\PG=C01 [X(H1O2S1)]\\@


 THE CHYMISTS ARE A STRANGE CLASS OF MORTALS IMPELLED
 BY AN ALMOST INSANE IMPULSE TO SEEK THEIR PLEASURE
 AMONG SMOKE AND VAPOR, SOOT AND FLAME, POISONS AND
 POVERTY; YET AMONG ALL THESE EVILS I SEEM TO LIVE
 SO SWEETLY, THAT I MAY DIE IF I WOULD CHANGE PLACES
 WITH THE PERSIAN KING.
   --  JOHANN JOACHIM BECHER, 1635-1682
 ACTA LABORATORII CHYMICA MONACENSIS, 1669
 Job cpu time:       0 days  0 hours  0 minutes 16.1 seconds.
 Elapsed time:       0 days  0 hours  0 minutes  8.4 seconds.
 File lengths (MBytes):  RWF=     16 Int=      0 D2E=      0 Chk=      2 Scr=      1
 Normal termination of Gaussian 16 at Thu Jul 16 14:38:12 2026.
