 Entering Gaussian System, Link 0=g16
 Initial command:
 /soft/g16.a03/g16/l1.exe "/scr/macias/296036.qcexmaster.qcexval.uv.es_vib5_-0.40/Gau-16179.inp" -scrdir="/scr/macias/296036.qcexmaster.qcexval.uv.es_vib5_-0.40/"
 Entering Link 1 = /soft/g16.a03/g16/l1.exe PID=     16181.
  
 Copyright (c) 1988,1990,1992,1993,1995,1998,2003,2009,2016,
            Gaussian, Inc.  All Rights Reserved.
  
 This is part of the Gaussian(R) 16 program.  It is based on
 the Gaussian(R) 09 system (copyright 2009, Gaussian, Inc.),
 the Gaussian(R) 03 system (copyright 2003, Gaussian, Inc.),
 the Gaussian(R) 98 system (copyright 1998, Gaussian, Inc.),
 the Gaussian(R) 94 system (copyright 1995, Gaussian, Inc.),
 the Gaussian 92(TM) system (copyright 1992, Gaussian, Inc.),
 the Gaussian 90(TM) system (copyright 1990, Gaussian, Inc.),
 the Gaussian 88(TM) system (copyright 1988, Gaussian, Inc.),
 the Gaussian 86(TM) system (copyright 1986, Carnegie Mellon
 University), and the Gaussian 82(TM) system (copyright 1983,
 Carnegie Mellon University). Gaussian is a federally registered
 trademark of Gaussian, Inc.
  
 This software contains proprietary and confidential information,
 including trade secrets, belonging to Gaussian, Inc.
  
 This software is provided under written license and may be
 used, copied, transmitted, or stored only in accord with that
 written license.
  
 The following legend is applicable only to US Government
 contracts under FAR:
  
                    RESTRICTED RIGHTS LEGEND
  
 Use, reproduction and disclosure by the US Government is
 subject to restrictions as set forth in subparagraphs (a)
 and (c) of the Commercial Computer Software - Restricted
 Rights clause in FAR 52.227-19.
  
 Gaussian, Inc.
 340 Quinnipiac St., Bldg. 40, Wallingford CT 06492
  
  
 ---------------------------------------------------------------
 Warning -- This program may not be used in any manner that
 competes with the business of Gaussian, Inc. or will provide
 assistance to any competitor of Gaussian, Inc.  The licensee
 of this program is prohibited from giving any competitor of
 Gaussian, Inc. access to this program.  By using this program,
 the user acknowledges that Gaussian, Inc. is engaged in the
 business of creating and licensing software in the field of
 computational chemistry and represents and warrants to the
 licensee that it is not a competitor of Gaussian, Inc. and that
 it will not use this program in any manner prohibited above.
 ---------------------------------------------------------------
  

 Cite this work as:
 Gaussian 16, Revision A.03,
 M. J. Frisch, G. W. Trucks, H. B. Schlegel, G. E. Scuseria, 
 M. A. Robb, J. R. Cheeseman, G. Scalmani, V. Barone, 
 G. A. Petersson, H. Nakatsuji, X. Li, M. Caricato, A. V. Marenich, 
 J. Bloino, B. G. Janesko, R. Gomperts, B. Mennucci, H. P. Hratchian, 
 J. V. Ortiz, A. F. Izmaylov, J. L. Sonnenberg, D. Williams-Young, 
 F. Ding, F. Lipparini, F. Egidi, J. Goings, B. Peng, A. Petrone, 
 T. Henderson, D. Ranasinghe, V. G. Zakrzewski, J. Gao, N. Rega, 
 G. Zheng, W. Liang, M. Hada, M. Ehara, K. Toyota, R. Fukuda, 
 J. Hasegawa, M. Ishida, T. Nakajima, Y. Honda, O. Kitao, H. Nakai, 
 T. Vreven, K. Throssell, J. A. Montgomery, Jr., J. E. Peralta, 
 F. Ogliaro, M. J. Bearpark, J. J. Heyd, E. N. Brothers, K. N. Kudin, 
 V. N. Staroverov, T. A. Keith, R. Kobayashi, J. Normand, 
 K. Raghavachari, A. P. Rendell, J. C. Burant, S. S. Iyengar, 
 J. Tomasi, M. Cossi, J. M. Millam, M. Klene, C. Adamo, R. Cammi, 
 J. W. Ochterski, R. L. Martin, K. Morokuma, O. Farkas, 
 J. B. Foresman, and D. J. Fox, Gaussian, Inc., Wallingford CT, 2016.
 
 ******************************************
 Gaussian 16:  ES64L-G16RevA.03 25-Dec-2016
                16-Jul-2026 
 ******************************************
 %chk=opt_freq.chk
 %nproc=2
 Will use up to    2 processors via shared memory.
 %mem=2GB
 ----------------------
 #sp b3lyp/6-311+G(3df)
 ----------------------
 1/38=1,172=1/1;
 2/12=2,17=6,18=5,40=1/2;
 3/5=4,6=6,7=16,11=2,25=1,30=1,74=-5/1,2,3;
 4//1;
 5/5=2,38=5/2;
 6/7=2,8=2,9=2,10=2,28=1/1;
 99/5=1,9=1/99;
 --------------------
 single point of HOSO
 --------------------
 Symbolic Z-matrix:
 Charge =  0 Multiplicity = 2
 S                    -0.08317  -0.55368   0.01442 
 O                     1.30848   0.2721   -0.03146 
 O                    -1.32026   0.68327  -0.02189 
 H                     1.565     1.24386   0.18407 
 
                          Input orientation:                          
 ---------------------------------------------------------------------
 Center     Atomic      Atomic             Coordinates (Angstroms)
 Number     Number       Type             X           Y           Z
 ---------------------------------------------------------------------
      1         16           0       -0.083170   -0.553675    0.014424
      2          8           0        1.308478    0.272099   -0.031462
      3          8           0       -1.320263    0.683268   -0.021893
      4          1           0        1.564997    1.243861    0.184065
 ---------------------------------------------------------------------
                    Distance matrix (angstroms):
                    1          2          3          4
     1  S    0.000000
     2  O    1.618855   0.000000
     3  O    1.749785   2.660720   0.000000
     4  H    2.444661   1.027898   2.946423   0.000000
 Stoichiometry    HO2S(2)
 Framework group  C1[X(HO2S)]
 Deg. of freedom     6
 Full point group                 C1      NOp   1
 Largest Abelian subgroup         C1      NOp   1
 Largest concise Abelian subgroup C1      NOp   1
                         Standard orientation:                         
 ---------------------------------------------------------------------
 Center     Atomic      Atomic             Coordinates (Angstroms)
 Number     Number       Type             X           Y           Z
 ---------------------------------------------------------------------
      1         16           0       -0.039410   -0.560069    0.011210
      2          8           0        1.275938    0.382441   -0.035981
      3          8           0       -1.378290    0.566302   -0.009598
      4          1           0        1.449369    1.371152    0.185262
 ---------------------------------------------------------------------
 Rotational constants (GHZ):          26.1557673           8.6067849           6.4850528
 Standard basis: 6-311+G(3df) (5D, 7F)
 There are   146 symmetry adapted cartesian basis functions of A   symmetry.
 There are   128 symmetry adapted basis functions of A   symmetry.
   128 basis functions,   193 primitive gaussians,   146 cartesian basis functions
    17 alpha electrons       16 beta electrons
       nuclear repulsion energy       102.2987501702 Hartrees.
 NAtoms=    4 NActive=    4 NUniq=    4 SFac= 1.00D+00 NAtFMM=   60 NAOKFM=F Big=F
 Integral buffers will be    131072 words long.
 Raffenetti 2 integral format.
 Two-electron integral symmetry is turned on.
 One-electron integrals computed using PRISM.
 NBasis=   128 RedAO= T EigKep=  1.47D-03  NBF=   128
 NBsUse=   128 1.00D-06 EigRej= -1.00D+00 NBFU=   128
 ExpMin= 4.05D-02 ExpMax= 9.34D+04 ExpMxC= 3.17D+03 IAcc=3 IRadAn=         5 AccDes= 0.00D+00
 Harris functional with IExCor=  402 and IRadAn=       5 diagonalized for initial guess.
 HarFok:  IExCor=  402 AccDes= 0.00D+00 IRadAn=         5 IDoV= 1 UseB2=F ITyADJ=14
 ICtDFT=  3500011 ScaDFX=  1.000000  1.000000  1.000000  1.000000
 FoFCou: FMM=F IPFlag=           0 FMFlag=      100000 FMFlg1=           0
         NFxFlg=           0 DoJE=T BraDBF=F KetDBF=T FulRan=T
         wScrn=  0.000000 ICntrl=       500 IOpCl=  0 I1Cent=   200000004 NGrid=           0
         NMat0=    1 NMatS0=      1 NMatT0=    0 NMatD0=    1 NMtDS0=    0 NMtDT0=    0
 Petite list used in FoFCou.
 Initial guess <Sx>= 0.0000 <Sy>= 0.0000 <Sz>= 0.5000 <S**2>= 0.7500 S= 0.5000
 Keep R1 and R2 ints in memory in canonical form, NReq=70152421.
 Requested convergence on RMS density matrix=1.00D-08 within 128 cycles.
 Requested convergence on MAX density matrix=1.00D-06.
 Requested convergence on             energy=1.00D-06.
 No special actions if energy rises.
 EnCoef did     2 forward-backward iterations
 EnCoef did     3 forward-backward iterations
 SCF Done:  E(UB3LYP) =  -549.236469493     A.U. after   17 cycles
            NFock= 17  Conv=0.43D-08     -V/T= 2.0028
 <Sx>= 0.0000 <Sy>= 0.0000 <Sz>= 0.5000 <S**2>= 0.7572 S= 0.5036
 <L.S>= 0.000000000000E+00
 Annihilation of the first spin contaminant:
 S**2 before annihilation     0.7572,   after     0.7500

 **********************************************************************

            Population analysis using the SCF density.

 **********************************************************************

 Orbital symmetries:
 Alpha Orbitals:
       Occupied  (A) (A) (A) (A) (A) (A) (A) (A) (A) (A) (A) (A)
                 (A) (A) (A) (A) (A)
       Virtual   (A) (A) (A) (A) (A) (A) (A) (A) (A) (A) (A) (A)
                 (A) (A) (A) (A) (A) (A) (A) (A) (A) (A) (A) (A)
                 (A) (A) (A) (A) (A) (A) (A) (A) (A) (A) (A) (A)
                 (A) (A) (A) (A) (A) (A) (A) (A) (A) (A) (A) (A)
                 (A) (A) (A) (A) (A) (A) (A) (A) (A) (A) (A) (A)
                 (A) (A) (A) (A) (A) (A) (A) (A) (A) (A) (A) (A)
                 (A) (A) (A) (A) (A) (A) (A) (A) (A) (A) (A) (A)
                 (A) (A) (A) (A) (A) (A) (A) (A) (A) (A) (A) (A)
                 (A) (A) (A) (A) (A) (A) (A) (A) (A) (A) (A) (A)
                 (A) (A) (A)
 Beta  Orbitals:
       Occupied  (A) (A) (A) (A) (A) (A) (A) (A) (A) (A) (A) (A)
                 (A) (A) (A) (A)
       Virtual   (A) (A) (A) (A) (A) (A) (A) (A) (A) (A) (A) (A)
                 (A) (A) (A) (A) (A) (A) (A) (A) (A) (A) (A) (A)
                 (A) (A) (A) (A) (A) (A) (A) (A) (A) (A) (A) (A)
                 (A) (A) (A) (A) (A) (A) (A) (A) (A) (A) (A) (A)
                 (A) (A) (A) (A) (A) (A) (A) (A) (A) (A) (A) (A)
                 (A) (A) (A) (A) (A) (A) (A) (A) (A) (A) (A) (A)
                 (A) (A) (A) (A) (A) (A) (A) (A) (A) (A) (A) (A)
                 (A) (A) (A) (A) (A) (A) (A) (A) (A) (A) (A) (A)
                 (A) (A) (A) (A) (A) (A) (A) (A) (A) (A) (A) (A)
                 (A) (A) (A) (A)
 The electronic state is 2-A.
 Alpha  occ. eigenvalues --  -88.99703 -19.20248 -19.16905  -8.06724  -6.03209
 Alpha  occ. eigenvalues --   -6.02699  -6.02623  -1.08918  -0.96286  -0.73875
 Alpha  occ. eigenvalues --   -0.55262  -0.45625  -0.45360  -0.38271  -0.36452
 Alpha  occ. eigenvalues --   -0.31679  -0.25994
 Alpha virt. eigenvalues --   -0.07153  -0.03899   0.00986   0.03282   0.04776
 Alpha virt. eigenvalues --    0.06482   0.08601   0.15414   0.16209   0.17089
 Alpha virt. eigenvalues --    0.18201   0.21117   0.22248   0.25156   0.26177
 Alpha virt. eigenvalues --    0.27344   0.27880   0.29852   0.31188   0.31785
 Alpha virt. eigenvalues --    0.32341   0.36339   0.43876   0.53618   0.70424
 Alpha virt. eigenvalues --    0.73469   0.78724   0.80213   0.83928   0.85381
 Alpha virt. eigenvalues --    0.88896   0.89221   0.90673   0.94106   0.95755
 Alpha virt. eigenvalues --    0.99252   0.99962   1.02792   1.03017   1.08449
 Alpha virt. eigenvalues --    1.10301   1.11897   1.13886   1.23603   1.31097
 Alpha virt. eigenvalues --    1.32841   1.57646   1.58617   1.60486   1.68602
 Alpha virt. eigenvalues --    1.80324   1.88164   1.91865   1.94132   1.97660
 Alpha virt. eigenvalues --    2.05883   2.18797   2.26805   2.34679   3.28891
 Alpha virt. eigenvalues --    3.31356   3.36456   3.38141   3.40036   3.43719
 Alpha virt. eigenvalues --    3.44473   3.50370   3.54827   3.59494   4.42221
 Alpha virt. eigenvalues --    4.45966   4.46931   4.54739   4.62616   4.89780
 Alpha virt. eigenvalues --    4.92456   4.92927   4.93416   4.95642   4.96537
 Alpha virt. eigenvalues --    4.99975   5.02520   5.02802   5.05193   5.05806
 Alpha virt. eigenvalues --    5.20455   5.25314   5.32263   5.35483   5.37804
 Alpha virt. eigenvalues --    5.44887   5.49525   5.65371   6.23037   8.22234
 Alpha virt. eigenvalues --   14.18668  14.20020  14.22962  14.24229  14.25888
 Alpha virt. eigenvalues --   14.27811  14.32881  14.34483  14.41871  14.44919
 Alpha virt. eigenvalues --   17.19699  17.42016  17.49754  49.87131  49.89850
 Alpha virt. eigenvalues --  189.20287
  Beta  occ. eigenvalues --  -88.99378 -19.19995 -19.15505  -8.06432  -6.03045
  Beta  occ. eigenvalues --   -6.02494  -6.01630  -1.08267  -0.93341  -0.72114
  Beta  occ. eigenvalues --   -0.54112  -0.45048  -0.42887  -0.36947  -0.30394
  Beta  occ. eigenvalues --   -0.30213
  Beta virt. eigenvalues --   -0.14356  -0.06530  -0.02936   0.01210   0.03643
  Beta virt. eigenvalues --    0.04960   0.06583   0.08735   0.15606   0.16488
  Beta virt. eigenvalues --    0.17426   0.19542   0.21425   0.22335   0.25454
  Beta virt. eigenvalues --    0.27036   0.27839   0.28526   0.30286   0.32271
  Beta virt. eigenvalues --    0.32432   0.32765   0.36725   0.44030   0.53834
  Beta virt. eigenvalues --    0.70898   0.74074   0.79129   0.81082   0.84388
  Beta virt. eigenvalues --    0.86413   0.89776   0.90692   0.91885   0.94419
  Beta virt. eigenvalues --    0.96623   1.00265   1.01651   1.03222   1.03538
  Beta virt. eigenvalues --    1.09047   1.11966   1.13194   1.14732   1.23871
  Beta virt. eigenvalues --    1.32066   1.33443   1.59635   1.60412   1.61732
  Beta virt. eigenvalues --    1.69861   1.81678   1.89110   1.93436   1.95869
  Beta virt. eigenvalues --    1.97755   2.06123   2.19217   2.27364   2.34839
  Beta virt. eigenvalues --    3.29794   3.32837   3.38049   3.41217   3.42145
  Beta virt. eigenvalues --    3.45483   3.47507   3.50968   3.55756   3.60798
  Beta virt. eigenvalues --    4.42680   4.46222   4.47750   4.55599   4.62886
  Beta virt. eigenvalues --    4.90671   4.93680   4.94215   4.96025   4.97182
  Beta virt. eigenvalues --    4.98215   5.01201   5.05828   5.05888   5.07201
  Beta virt. eigenvalues --    5.07499   5.21034   5.26359   5.34925   5.36367
  Beta virt. eigenvalues --    5.38322   5.45763   5.50225   5.65995   6.23602
  Beta virt. eigenvalues --    8.22649  14.19907  14.22047  14.26071  14.28047
  Beta virt. eigenvalues --   14.29224  14.33063  14.33866  14.34935  14.44274
  Beta virt. eigenvalues --   14.45576  17.21082  17.42223  17.49996  49.87748
  Beta virt. eigenvalues --   49.90879 189.20581
          Condensed to atoms (all electrons):
               1          2          3          4
     1  S   15.232928   0.026353   0.232115   0.001687
     2  O    0.026353   8.336930  -0.009231   0.190806
     3  O    0.232115  -0.009231   8.218927   0.001401
     4  H    0.001687   0.190806   0.001401   0.324951
          Atomic-Atomic Spin Densities.
               1          2          3          4
     1  S    0.657227  -0.075766  -0.118006  -0.001025
     2  O   -0.075766   0.127193   0.013787  -0.001468
     3  O   -0.118006   0.013787   0.580782  -0.000661
     4  H   -0.001025  -0.001468  -0.000661   0.001076
 Mulliken charges and spin densities:
               1          2
     1  S    0.506917   0.462429
     2  O   -0.544859   0.063747
     3  O   -0.443213   0.475901
     4  H    0.481155  -0.002078
 Sum of Mulliken charges =  -0.00000   1.00000
 Mulliken charges and spin densities with hydrogens summed into heavy atoms:
               1          2
     1  S    0.506917   0.462429
     2  O   -0.063704   0.061669
     3  O   -0.443213   0.475901
 Electronic spatial extent (au):  <R**2>=            199.5045
 Charge=             -0.0000 electrons
 Dipole moment (field-independent basis, Debye):
    X=              2.5213    Y=              0.0013    Z=              0.4184  Tot=              2.5558
 Quadrupole moment (field-independent basis, Debye-Ang):
   XX=            -26.7383   YY=            -20.0378   ZZ=            -24.4929
   XY=              4.3204   XZ=              0.7021   YZ=              0.6699
 Traceless Quadrupole moment (field-independent basis, Debye-Ang):
   XX=             -2.9820   YY=              3.7185   ZZ=             -0.7366
   XY=              4.3204   XZ=              0.7021   YZ=              0.6699
 Octapole moment (field-independent basis, Debye-Ang**2):
  XXX=              7.3649  YYY=              6.4060  ZZZ=             -0.0202  XYY=              6.8819
  XXY=              3.7363  XXZ=              0.9424  XZZ=              0.6566  YZZ=              1.0817
  YYZ=              0.9067  XYZ=              0.9610
 Hexadecapole moment (field-independent basis, Debye-Ang**3):
 XXXX=           -159.3621 YYYY=            -59.1885 ZZZZ=            -27.0063 XXXY=             10.2662
 XXXZ=              1.6939 YYYX=             11.7225 YYYZ=              1.4561 ZZZX=              0.3542
 ZZZY=              0.3951 XXYY=            -26.9271 XXZZ=            -30.6226 YYZZ=            -16.3464
 XXYZ=              1.4639 YYXZ=              1.4213 ZZXY=              0.5045
 N-N= 1.022987501702D+02 E-N=-1.508236098134D+03  KE= 5.477124064478D+02
                          Isotropic Fermi Contact Couplings
        Atom                 a.u.       MegaHertz       Gauss      10(-4) cm-1
     1  S(33)              0.03886      13.34570       4.76208       4.45165
     2  O(17)              0.01364      -8.26910      -2.95062      -2.75827
     3  O(17)              0.03131     -18.98023      -6.77262      -6.33112
     4  H(1)              -0.00060      -2.68571      -0.95833      -0.89586
 --------------------------------------------------------
       Center         ----  Spin Dipole Couplings  ----
                      3XX-RR        3YY-RR        3ZZ-RR
 --------------------------------------------------------
     1   Atom       -1.298722     -1.366120      2.664841
     2   Atom       -0.238033     -0.195928      0.433961
     3   Atom       -1.054518     -1.044911      2.099429
     4   Atom       -0.006906      0.014857     -0.007951
 --------------------------------------------------------
                        XY            XZ            YZ
 --------------------------------------------------------
     1   Atom        0.055126     -0.105722     -0.006245
     2   Atom        0.013369      0.011244     -0.085109
     3   Atom       -0.010968      0.070829     -0.048275
     4   Atom        0.009942      0.001494      0.002697
 --------------------------------------------------------


 ---------------------------------------------------------------------------------
              Anisotropic Spin Dipole Couplings in Principal Axis System
 ---------------------------------------------------------------------------------

       Atom             a.u.   MegaHertz   Gauss  10(-4) cm-1        Axes

              Baa    -1.3976   -57.299   -20.446   -19.113 -0.4965  0.8680 -0.0116
     1 S(33)  Bbb    -1.2701   -52.073   -18.581   -17.370  0.8676  0.4966  0.0241
              Bcc     2.6677   109.372    39.027    36.483 -0.0267 -0.0019  0.9996
 
              Baa    -0.2441    17.660     6.301     5.891  0.9284 -0.3665 -0.0614
     2 O(17)  Bbb    -0.2013    14.568     5.198     4.859  0.3713  0.9211  0.1168
              Bcc     0.4454   -32.228   -11.500   -10.750  0.0137 -0.1313  0.9913
 
              Baa    -1.0621    76.850    27.422    25.634  0.8565  0.5160 -0.0113
     3 O(17)  Bbb    -1.0397    75.232    26.845    25.095 -0.5156  0.8565  0.0248
              Bcc     2.1018  -152.082   -54.267   -50.729  0.0225 -0.0154  0.9996
 
              Baa    -0.0108    -5.779    -2.062    -1.928  0.9261 -0.3415 -0.1605
     4 H(1)   Bbb    -0.0082    -4.391    -1.567    -1.465  0.1102 -0.1620  0.9806
              Bcc     0.0191    10.170     3.629     3.392  0.3609  0.9258  0.1124
 

 ---------------------------------------------------------------------------------

 1\1\GINC-QCEXNOD57\SP\UB3LYP\6-311+G(3df)\H1O2S1(2)\ROOT\16-Jul-2026\0
 \\#sp b3lyp/6-311+G(3df)\\single point of HOSO\\0,2\S,0,-0.08317,-0.55
 3675,0.014424\O,0,1.308478,0.272099,-0.031462\O,0,-1.320263,0.683268,-
 0.021893\H,0,1.564997,1.243861,0.184065\\Version=ES64L-G16RevA.03\Stat
 e=2-A\HF=-549.2364695\S2=0.757206\S2-1=0.\S2A=0.750033\RMSD=4.258e-09\
 Dipole=0.9874547,-0.0834263,0.1704206\Quadrupole=-1.6365921,2.1850274,
 -0.5484353,3.5924719,0.5309925,0.4504107\PG=C01 [X(H1O2S1)]\\@


 THEORY:  SUPPOSITION WHICH HAS SCIENTIFIC BASIS,
          BUT NOT EXPERIMENTALLY PROVEN.
 FACT:    A THEORY WHICH HAS BEEN PROVEN BY ENOUGH 
          MONEY TO PAY FOR THE EXPERIMENTS.

                          --  THE WIZARD OF ID
 Job cpu time:       0 days  0 hours  0 minutes 18.9 seconds.
 Elapsed time:       0 days  0 hours  0 minutes  9.9 seconds.
 File lengths (MBytes):  RWF=     16 Int=      0 D2E=      0 Chk=      2 Scr=      1
 Normal termination of Gaussian 16 at Thu Jul 16 14:38:32 2026.
