 Entering Gaussian System, Link 0=g16
 Initial command:
 /soft/g16.a03/g16/l1.exe "/scr/macias/295997.qcexmaster.qcexval.uv.es_vib1_-0.10/Gau-14657.inp" -scrdir="/scr/macias/295997.qcexmaster.qcexval.uv.es_vib1_-0.10/"
 Entering Link 1 = /soft/g16.a03/g16/l1.exe PID=     14671.
  
 Copyright (c) 1988,1990,1992,1993,1995,1998,2003,2009,2016,
            Gaussian, Inc.  All Rights Reserved.
  
 This is part of the Gaussian(R) 16 program.  It is based on
 the Gaussian(R) 09 system (copyright 2009, Gaussian, Inc.),
 the Gaussian(R) 03 system (copyright 2003, Gaussian, Inc.),
 the Gaussian(R) 98 system (copyright 1998, Gaussian, Inc.),
 the Gaussian(R) 94 system (copyright 1995, Gaussian, Inc.),
 the Gaussian 92(TM) system (copyright 1992, Gaussian, Inc.),
 the Gaussian 90(TM) system (copyright 1990, Gaussian, Inc.),
 the Gaussian 88(TM) system (copyright 1988, Gaussian, Inc.),
 the Gaussian 86(TM) system (copyright 1986, Carnegie Mellon
 University), and the Gaussian 82(TM) system (copyright 1983,
 Carnegie Mellon University). Gaussian is a federally registered
 trademark of Gaussian, Inc.
  
 This software contains proprietary and confidential information,
 including trade secrets, belonging to Gaussian, Inc.
  
 This software is provided under written license and may be
 used, copied, transmitted, or stored only in accord with that
 written license.
  
 The following legend is applicable only to US Government
 contracts under FAR:
  
                    RESTRICTED RIGHTS LEGEND
  
 Use, reproduction and disclosure by the US Government is
 subject to restrictions as set forth in subparagraphs (a)
 and (c) of the Commercial Computer Software - Restricted
 Rights clause in FAR 52.227-19.
  
 Gaussian, Inc.
 340 Quinnipiac St., Bldg. 40, Wallingford CT 06492
  
  
 ---------------------------------------------------------------
 Warning -- This program may not be used in any manner that
 competes with the business of Gaussian, Inc. or will provide
 assistance to any competitor of Gaussian, Inc.  The licensee
 of this program is prohibited from giving any competitor of
 Gaussian, Inc. access to this program.  By using this program,
 the user acknowledges that Gaussian, Inc. is engaged in the
 business of creating and licensing software in the field of
 computational chemistry and represents and warrants to the
 licensee that it is not a competitor of Gaussian, Inc. and that
 it will not use this program in any manner prohibited above.
 ---------------------------------------------------------------
  

 Cite this work as:
 Gaussian 16, Revision A.03,
 M. J. Frisch, G. W. Trucks, H. B. Schlegel, G. E. Scuseria, 
 M. A. Robb, J. R. Cheeseman, G. Scalmani, V. Barone, 
 G. A. Petersson, H. Nakatsuji, X. Li, M. Caricato, A. V. Marenich, 
 J. Bloino, B. G. Janesko, R. Gomperts, B. Mennucci, H. P. Hratchian, 
 J. V. Ortiz, A. F. Izmaylov, J. L. Sonnenberg, D. Williams-Young, 
 F. Ding, F. Lipparini, F. Egidi, J. Goings, B. Peng, A. Petrone, 
 T. Henderson, D. Ranasinghe, V. G. Zakrzewski, J. Gao, N. Rega, 
 G. Zheng, W. Liang, M. Hada, M. Ehara, K. Toyota, R. Fukuda, 
 J. Hasegawa, M. Ishida, T. Nakajima, Y. Honda, O. Kitao, H. Nakai, 
 T. Vreven, K. Throssell, J. A. Montgomery, Jr., J. E. Peralta, 
 F. Ogliaro, M. J. Bearpark, J. J. Heyd, E. N. Brothers, K. N. Kudin, 
 V. N. Staroverov, T. A. Keith, R. Kobayashi, J. Normand, 
 K. Raghavachari, A. P. Rendell, J. C. Burant, S. S. Iyengar, 
 J. Tomasi, M. Cossi, J. M. Millam, M. Klene, C. Adamo, R. Cammi, 
 J. W. Ochterski, R. L. Martin, K. Morokuma, O. Farkas, 
 J. B. Foresman, and D. J. Fox, Gaussian, Inc., Wallingford CT, 2016.
 
 ******************************************
 Gaussian 16:  ES64L-G16RevA.03 25-Dec-2016
                16-Jul-2026 
 ******************************************
 %chk=opt_freq.chk
 %nproc=2
 Will use up to    2 processors via shared memory.
 %mem=2GB
 ----------------------
 #sp b3lyp/6-311+G(3df)
 ----------------------
 1/38=1,172=1/1;
 2/12=2,17=6,18=5,40=1/2;
 3/5=4,6=6,7=16,11=2,25=1,30=1,74=-5/1,2,3;
 4//1;
 5/5=2,38=5/2;
 6/7=2,8=2,9=2,10=2,28=1/1;
 99/5=1,9=1/99;
 --------------------
 single point of HOSO
 --------------------
 Symbolic Z-matrix:
 Charge =  0 Multiplicity = 2
 S                    -0.14317  -0.47968   0.01142 
 O                     1.32848   0.2561   -0.03146 
 O                    -1.19326   0.55327  -0.01389 
 H                     1.207     1.20986   0.13607 
 
                          Input orientation:                          
 ---------------------------------------------------------------------
 Center     Atomic      Atomic             Coordinates (Angstroms)
 Number     Number       Type             X           Y           Z
 ---------------------------------------------------------------------
      1         16           0       -0.143170   -0.479675    0.011424
      2          8           0        1.328478    0.256099   -0.031462
      3          8           0       -1.193263    0.553268   -0.013893
      4          1           0        1.206997    1.209861    0.136065
 ---------------------------------------------------------------------
                    Distance matrix (angstroms):
                    1          2          3          4
     1  S    0.000000
     2  O    1.645889   0.000000
     3  O    1.473196   2.539251   0.000000
     4  H    2.166338   0.975953   2.492960   0.000000
 Stoichiometry    HO2S(2)
 Framework group  C1[X(HO2S)]
 Deg. of freedom     6
 Full point group                 C1      NOp   1
 Largest Abelian subgroup         C1      NOp   1
 Largest concise Abelian subgroup C1      NOp   1
                         Standard orientation:                         
 ---------------------------------------------------------------------
 Center     Atomic      Atomic             Coordinates (Angstroms)
 Number     Number       Type             X           Y           Z
 ---------------------------------------------------------------------
      1         16           0       -0.143125   -0.480049    0.009515
      2          8           0        1.328598    0.255994   -0.025475
      3          8           0       -1.193186    0.553013   -0.011998
      4          1           0        1.206698    1.208722    0.147541
 ---------------------------------------------------------------------
 Rotational constants (GHZ):          34.2891919           9.5001099           7.4465684
 Standard basis: 6-311+G(3df) (5D, 7F)
 There are   146 symmetry adapted cartesian basis functions of A   symmetry.
 There are   128 symmetry adapted basis functions of A   symmetry.
   128 basis functions,   193 primitive gaussians,   146 cartesian basis functions
    17 alpha electrons       16 beta electrons
       nuclear repulsion energy       110.4136716639 Hartrees.
 NAtoms=    4 NActive=    4 NUniq=    4 SFac= 1.00D+00 NAtFMM=   60 NAOKFM=F Big=F
 Integral buffers will be    131072 words long.
 Raffenetti 2 integral format.
 Two-electron integral symmetry is turned on.
 One-electron integrals computed using PRISM.
 NBasis=   128 RedAO= T EigKep=  9.58D-04  NBF=   128
 NBsUse=   128 1.00D-06 EigRej= -1.00D+00 NBFU=   128
 ExpMin= 4.05D-02 ExpMax= 9.34D+04 ExpMxC= 3.17D+03 IAcc=3 IRadAn=         5 AccDes= 0.00D+00
 Harris functional with IExCor=  402 and IRadAn=       5 diagonalized for initial guess.
 HarFok:  IExCor=  402 AccDes= 0.00D+00 IRadAn=         5 IDoV= 1 UseB2=F ITyADJ=14
 ICtDFT=  3500011 ScaDFX=  1.000000  1.000000  1.000000  1.000000
 FoFCou: FMM=F IPFlag=           0 FMFlag=      100000 FMFlg1=           0
         NFxFlg=           0 DoJE=T BraDBF=F KetDBF=T FulRan=T
         wScrn=  0.000000 ICntrl=       500 IOpCl=  0 I1Cent=   200000004 NGrid=           0
         NMat0=    1 NMatS0=      1 NMatT0=    0 NMatD0=    1 NMtDS0=    0 NMtDT0=    0
 Petite list used in FoFCou.
 Initial guess <Sx>= 0.0000 <Sy>= 0.0000 <Sz>= 0.5000 <S**2>= 0.7500 S= 0.5000
 Keep R1 and R2 ints in memory in canonical form, NReq=70152760.
 Requested convergence on RMS density matrix=1.00D-08 within 128 cycles.
 Requested convergence on MAX density matrix=1.00D-06.
 Requested convergence on             energy=1.00D-06.
 No special actions if energy rises.
 SCF Done:  E(UB3LYP) =  -549.293820227     A.U. after   14 cycles
            NFock= 14  Conv=0.29D-08     -V/T= 2.0018
 <Sx>= 0.0000 <Sy>= 0.0000 <Sz>= 0.5000 <S**2>= 0.7552 S= 0.5026
 <L.S>= 0.000000000000E+00
 Annihilation of the first spin contaminant:
 S**2 before annihilation     0.7552,   after     0.7500

 **********************************************************************

            Population analysis using the SCF density.

 **********************************************************************

 Orbital symmetries:
 Alpha Orbitals:
       Occupied  (A) (A) (A) (A) (A) (A) (A) (A) (A) (A) (A) (A)
                 (A) (A) (A) (A) (A)
       Virtual   (A) (A) (A) (A) (A) (A) (A) (A) (A) (A) (A) (A)
                 (A) (A) (A) (A) (A) (A) (A) (A) (A) (A) (A) (A)
                 (A) (A) (A) (A) (A) (A) (A) (A) (A) (A) (A) (A)
                 (A) (A) (A) (A) (A) (A) (A) (A) (A) (A) (A) (A)
                 (A) (A) (A) (A) (A) (A) (A) (A) (A) (A) (A) (A)
                 (A) (A) (A) (A) (A) (A) (A) (A) (A) (A) (A) (A)
                 (A) (A) (A) (A) (A) (A) (A) (A) (A) (A) (A) (A)
                 (A) (A) (A) (A) (A) (A) (A) (A) (A) (A) (A) (A)
                 (A) (A) (A) (A) (A) (A) (A) (A) (A) (A) (A) (A)
                 (A) (A) (A)
 Beta  Orbitals:
       Occupied  (A) (A) (A) (A) (A) (A) (A) (A) (A) (A) (A) (A)
                 (A) (A) (A) (A)
       Virtual   (A) (A) (A) (A) (A) (A) (A) (A) (A) (A) (A) (A)
                 (A) (A) (A) (A) (A) (A) (A) (A) (A) (A) (A) (A)
                 (A) (A) (A) (A) (A) (A) (A) (A) (A) (A) (A) (A)
                 (A) (A) (A) (A) (A) (A) (A) (A) (A) (A) (A) (A)
                 (A) (A) (A) (A) (A) (A) (A) (A) (A) (A) (A) (A)
                 (A) (A) (A) (A) (A) (A) (A) (A) (A) (A) (A) (A)
                 (A) (A) (A) (A) (A) (A) (A) (A) (A) (A) (A) (A)
                 (A) (A) (A) (A) (A) (A) (A) (A) (A) (A) (A) (A)
                 (A) (A) (A) (A) (A) (A) (A) (A) (A) (A) (A) (A)
                 (A) (A) (A) (A)
 The electronic state is 2-A.
 Alpha  occ. eigenvalues --  -88.98460 -19.19475 -19.16402  -8.05766  -6.02155
 Alpha  occ. eigenvalues --   -6.01916  -6.01583  -1.11742  -1.04697  -0.70562
 Alpha  occ. eigenvalues --   -0.54333  -0.48230  -0.47584  -0.42195  -0.38801
 Alpha  occ. eigenvalues --   -0.34462  -0.23407
 Alpha virt. eigenvalues --   -0.02901  -0.00221   0.01500   0.03811   0.04618
 Alpha virt. eigenvalues --    0.07587   0.11768   0.14942   0.16435   0.17011
 Alpha virt. eigenvalues --    0.18624   0.20341   0.23166   0.24687   0.25349
 Alpha virt. eigenvalues --    0.28119   0.28766   0.29749   0.30943   0.32099
 Alpha virt. eigenvalues --    0.33235   0.42228   0.48002   0.59958   0.69799
 Alpha virt. eigenvalues --    0.72180   0.78885   0.79226   0.85994   0.87974
 Alpha virt. eigenvalues --    0.88480   0.88641   0.91443   0.93644   0.96217
 Alpha virt. eigenvalues --    1.00220   1.00919   1.03315   1.04935   1.07568
 Alpha virt. eigenvalues --    1.12257   1.18923   1.23428   1.29081   1.30406
 Alpha virt. eigenvalues --    1.33466   1.57096   1.58702   1.65121   1.70824
 Alpha virt. eigenvalues --    1.82989   1.92686   1.97149   1.99180   2.03104
 Alpha virt. eigenvalues --    2.10565   2.21980   2.25821   2.35970   3.27854
 Alpha virt. eigenvalues --    3.32607   3.36150   3.38833   3.40742   3.45873
 Alpha virt. eigenvalues --    3.46949   3.54126   3.60031   3.61153   4.42841
 Alpha virt. eigenvalues --    4.46356   4.50235   4.58647   4.79511   4.88563
 Alpha virt. eigenvalues --    4.92332   4.93641   4.95076   4.96149   4.97301
 Alpha virt. eigenvalues --    4.99755   5.00962   5.05134   5.13081   5.14362
 Alpha virt. eigenvalues --    5.30733   5.34560   5.41685   5.45396   5.55213
 Alpha virt. eigenvalues --    5.60419   5.73525   5.88400   6.44616   8.62059
 Alpha virt. eigenvalues --   14.18677  14.21868  14.23487  14.25920  14.27661
 Alpha virt. eigenvalues --   14.31950  14.33100  14.36006  14.48020  14.57652
 Alpha virt. eigenvalues --   17.21660  17.46687  17.72981  49.88073  49.96119
 Alpha virt. eigenvalues --  189.58159
  Beta  occ. eigenvalues --  -88.98066 -19.19169 -19.15405  -8.05407  -6.01945
  Beta  occ. eigenvalues --   -6.01399  -6.00651  -1.10639  -1.03318  -0.68494
  Beta  occ. eigenvalues --   -0.53245  -0.47611  -0.43929  -0.40760  -0.35196
  Beta  occ. eigenvalues --   -0.33432
  Beta virt. eigenvalues --   -0.11670  -0.02308   0.00204   0.02059   0.04378
  Beta virt. eigenvalues --    0.04922   0.07766   0.11975   0.15209   0.16866
  Beta virt. eigenvalues --    0.17235   0.19304   0.20526   0.23402   0.24758
  Beta virt. eigenvalues --    0.26623   0.28471   0.29447   0.30834   0.32541
  Beta virt. eigenvalues --    0.32774   0.33518   0.42931   0.48132   0.60392
  Beta virt. eigenvalues --    0.70389   0.72574   0.79564   0.80087   0.86947
  Beta virt. eigenvalues --    0.88255   0.89499   0.90155   0.92476   0.94433
  Beta virt. eigenvalues --    0.97170   1.01054   1.03114   1.03673   1.05217
  Beta virt. eigenvalues --    1.08230   1.13602   1.19308   1.24947   1.29687
  Beta virt. eigenvalues --    1.30858   1.33791   1.60436   1.60626   1.66712
  Beta virt. eigenvalues --    1.72479   1.83786   1.94271   1.97932   2.01654
  Beta virt. eigenvalues --    2.03186   2.10947   2.22452   2.26679   2.36444
  Beta virt. eigenvalues --    3.28917   3.34120   3.38570   3.39908   3.42145
  Beta virt. eigenvalues --    3.47450   3.48476   3.54797   3.61042   3.61534
  Beta virt. eigenvalues --    4.43624   4.46509   4.51268   4.59195   4.80145
  Beta virt. eigenvalues --    4.89345   4.93509   4.94287   4.95768   4.97184
  Beta virt. eigenvalues --    5.01240   5.02020   5.02777   5.05891   5.14023
  Beta virt. eigenvalues --    5.15743   5.31398   5.35090   5.42611   5.46223
  Beta virt. eigenvalues --    5.56054   5.60934   5.75350   5.88915   6.45035
  Beta virt. eigenvalues --    8.62553  14.20117  14.24215  14.26823  14.27520
  Beta virt. eigenvalues --   14.29753  14.33670  14.35629  14.36825  14.48465
  Beta virt. eigenvalues --   14.59380  17.23332  17.46976  17.73283  49.88402
  Beta virt. eigenvalues --   49.97081 189.58515
          Condensed to atoms (all electrons):
               1          2          3          4
     1  S   15.337624  -0.010933   0.130489   0.010545
     2  O   -0.010933   8.422717   0.004966   0.199494
     3  O    0.130489   0.004966   8.254143   0.000928
     4  H    0.010545   0.199494   0.000928   0.314538
          Atomic-Atomic Spin Densities.
               1          2          3          4
     1  S    0.933526  -0.105934  -0.192098   0.001074
     2  O   -0.105934   0.156883   0.019590  -0.003029
     3  O   -0.192098   0.019590   0.471372  -0.001195
     4  H    0.001074  -0.003029  -0.001195   0.001402
 Mulliken charges and spin densities:
               1          2
     1  S    0.532275   0.636569
     2  O   -0.616244   0.067511
     3  O   -0.390526   0.297668
     4  H    0.474495  -0.001748
 Sum of Mulliken charges =  -0.00000   1.00000
 Mulliken charges and spin densities with hydrogens summed into heavy atoms:
               1          2
     1  S    0.532275   0.636569
     2  O   -0.141749   0.065763
     3  O   -0.390526   0.297668
 Electronic spatial extent (au):  <R**2>=            180.2310
 Charge=             -0.0000 electrons
 Dipole moment (field-independent basis, Debye):
    X=              1.1638    Y=              0.0570    Z=              0.3016  Tot=              1.2036
 Quadrupole moment (field-independent basis, Debye-Ang):
   XX=            -27.0919   YY=            -21.1095   ZZ=            -23.9737
   XY=              3.3840   XZ=              0.3794   YZ=              0.4866
 Traceless Quadrupole moment (field-independent basis, Debye-Ang):
   XX=             -3.0335   YY=              2.9489   ZZ=              0.0847
   XY=              3.3840   XZ=              0.3794   YZ=              0.4866
 Octapole moment (field-independent basis, Debye-Ang**2):
  XXX=              0.9994  YYY=              5.3154  ZZZ=             -0.0339  XYY=              4.6790
  XXY=              0.8628  XXZ=              0.4549  XZZ=             -0.0852  YZZ=              1.0870
  YYZ=              0.5810  XYZ=              0.5810
 Hexadecapole moment (field-independent basis, Debye-Ang**3):
 XXXX=           -146.1551 YYYY=            -53.2256 ZZZZ=            -25.7546 XXXY=              5.7949
 XXXZ=              0.6178 YYYX=              6.4718 YYYZ=              0.8289 ZZZX=              0.1886
 ZZZY=              0.3185 XXYY=            -27.5979 XXZZ=            -27.9673 YYZZ=            -14.5102
 XXYZ=              0.8017 YYXZ=              0.7033 ZZXY=              0.2767
 N-N= 1.104136716639D+02 E-N=-1.524775339387D+03  KE= 5.482848330528D+02
                          Isotropic Fermi Contact Couplings
        Atom                 a.u.       MegaHertz       Gauss      10(-4) cm-1
     1  S(33)              0.05518      18.95441       6.76341       6.32251
     2  O(17)              0.01507      -9.13732      -3.26042      -3.04788
     3  O(17)              0.03517     -21.31814      -7.60684      -7.11097
     4  H(1)              -0.00114      -5.08174      -1.81329      -1.69509
 --------------------------------------------------------
       Center         ----  Spin Dipole Couplings  ----
                      3XX-RR        3YY-RR        3ZZ-RR
 --------------------------------------------------------
     1   Atom       -1.490573     -1.613373      3.103947
     2   Atom       -0.264087     -0.240863      0.504950
     3   Atom       -0.781801     -0.785088      1.566889
     4   Atom       -0.010042      0.021219     -0.011177
 --------------------------------------------------------
                        XY            XZ            YZ
 --------------------------------------------------------
     1   Atom       -0.000034     -0.036705      0.103397
     2   Atom        0.010074      0.011447     -0.074443
     3   Atom        0.000156      0.047572      0.019709
     4   Atom        0.003626      0.000652      0.002873
 --------------------------------------------------------


 ---------------------------------------------------------------------------------
              Anisotropic Spin Dipole Couplings in Principal Axis System
 ---------------------------------------------------------------------------------

       Atom             a.u.   MegaHertz   Gauss  10(-4) cm-1        Axes

              Baa    -1.6156   -66.240   -23.636   -22.095 -0.0062  0.9997 -0.0220
     1 S(33)  Bbb    -1.4909   -61.124   -21.811   -20.389  0.9999  0.0063  0.0078
              Bcc     3.1065   127.364    45.447    42.484 -0.0080  0.0219  0.9997
 
              Baa    -0.2699    19.533     6.970     6.516  0.8896 -0.4532 -0.0567
     2 O(17)  Bbb    -0.2425    17.547     6.261     5.853  0.4565  0.8860  0.0812
              Bcc     0.5124   -37.080   -13.231   -12.369  0.0134 -0.0982  0.9951
 
              Baa    -0.7853    56.822    20.276    18.954  0.0961  0.9953 -0.0103
     3 O(17)  Bbb    -0.7827    56.639    20.210    18.893  0.9952 -0.0963 -0.0193
              Bcc     1.5680  -113.461   -40.486   -37.846  0.0202  0.0084  0.9998
 
              Baa    -0.0115    -6.153    -2.195    -2.052 -0.2933 -0.0513  0.9547
     4 H(1)   Bbb    -0.0104    -5.529    -1.973    -1.844  0.9492 -0.1348  0.2843
              Bcc     0.0219    11.681     4.168     3.896  0.1141  0.9895  0.0882
 

 ---------------------------------------------------------------------------------

 1\1\GINC-QCEXNOD57\SP\UB3LYP\6-311+G(3df)\H1O2S1(2)\ROOT\16-Jul-2026\0
 \\#sp b3lyp/6-311+G(3df)\\single point of HOSO\\0,2\S,0,-0.14317,-0.47
 9675,0.011424\O,0,1.328478,0.256099,-0.031462\O,0,-1.193263,0.553268,-
 0.013893\H,0,1.206997,1.209861,0.136065\\Version=ES64L-G16RevA.03\Stat
 e=2-A\HF=-549.2938202\S2=0.755229\S2-1=0.\S2A=0.750019\RMSD=2.933e-09\
 Dipole=0.458143,0.0231351,0.1174557\Quadrupole=-2.2539545,2.196579,0.0
 573756,2.5185525,0.2722687,0.3429971\PG=C01 [X(H1O2S1)]\\@


 This summer one third of the nation will be ill-housed
 ill-nourished and ill-clad. Only they call it a vacation.
 -- Jonas Salk
 Job cpu time:       0 days  0 hours  0 minutes 17.1 seconds.
 Elapsed time:       0 days  0 hours  0 minutes  9.1 seconds.
 File lengths (MBytes):  RWF=     16 Int=      0 D2E=      0 Chk=      2 Scr=      1
 Normal termination of Gaussian 16 at Thu Jul 16 14:38:03 2026.
