 Entering Gaussian System, Link 0=g16
 Initial command:
 /soft/g16.a03/g16/l1.exe "/scr/macias/296042.qcexmaster.qcexval.uv.es_vib6_-0.10/Gau-16478.inp" -scrdir="/scr/macias/296042.qcexmaster.qcexval.uv.es_vib6_-0.10/"
 Entering Link 1 = /soft/g16.a03/g16/l1.exe PID=     16479.
  
 Copyright (c) 1988,1990,1992,1993,1995,1998,2003,2009,2016,
            Gaussian, Inc.  All Rights Reserved.
  
 This is part of the Gaussian(R) 16 program.  It is based on
 the Gaussian(R) 09 system (copyright 2009, Gaussian, Inc.),
 the Gaussian(R) 03 system (copyright 2003, Gaussian, Inc.),
 the Gaussian(R) 98 system (copyright 1998, Gaussian, Inc.),
 the Gaussian(R) 94 system (copyright 1995, Gaussian, Inc.),
 the Gaussian 92(TM) system (copyright 1992, Gaussian, Inc.),
 the Gaussian 90(TM) system (copyright 1990, Gaussian, Inc.),
 the Gaussian 88(TM) system (copyright 1988, Gaussian, Inc.),
 the Gaussian 86(TM) system (copyright 1986, Carnegie Mellon
 University), and the Gaussian 82(TM) system (copyright 1983,
 Carnegie Mellon University). Gaussian is a federally registered
 trademark of Gaussian, Inc.
  
 This software contains proprietary and confidential information,
 including trade secrets, belonging to Gaussian, Inc.
  
 This software is provided under written license and may be
 used, copied, transmitted, or stored only in accord with that
 written license.
  
 The following legend is applicable only to US Government
 contracts under FAR:
  
                    RESTRICTED RIGHTS LEGEND
  
 Use, reproduction and disclosure by the US Government is
 subject to restrictions as set forth in subparagraphs (a)
 and (c) of the Commercial Computer Software - Restricted
 Rights clause in FAR 52.227-19.
  
 Gaussian, Inc.
 340 Quinnipiac St., Bldg. 40, Wallingford CT 06492
  
  
 ---------------------------------------------------------------
 Warning -- This program may not be used in any manner that
 competes with the business of Gaussian, Inc. or will provide
 assistance to any competitor of Gaussian, Inc.  The licensee
 of this program is prohibited from giving any competitor of
 Gaussian, Inc. access to this program.  By using this program,
 the user acknowledges that Gaussian, Inc. is engaged in the
 business of creating and licensing software in the field of
 computational chemistry and represents and warrants to the
 licensee that it is not a competitor of Gaussian, Inc. and that
 it will not use this program in any manner prohibited above.
 ---------------------------------------------------------------
  

 Cite this work as:
 Gaussian 16, Revision A.03,
 M. J. Frisch, G. W. Trucks, H. B. Schlegel, G. E. Scuseria, 
 M. A. Robb, J. R. Cheeseman, G. Scalmani, V. Barone, 
 G. A. Petersson, H. Nakatsuji, X. Li, M. Caricato, A. V. Marenich, 
 J. Bloino, B. G. Janesko, R. Gomperts, B. Mennucci, H. P. Hratchian, 
 J. V. Ortiz, A. F. Izmaylov, J. L. Sonnenberg, D. Williams-Young, 
 F. Ding, F. Lipparini, F. Egidi, J. Goings, B. Peng, A. Petrone, 
 T. Henderson, D. Ranasinghe, V. G. Zakrzewski, J. Gao, N. Rega, 
 G. Zheng, W. Liang, M. Hada, M. Ehara, K. Toyota, R. Fukuda, 
 J. Hasegawa, M. Ishida, T. Nakajima, Y. Honda, O. Kitao, H. Nakai, 
 T. Vreven, K. Throssell, J. A. Montgomery, Jr., J. E. Peralta, 
 F. Ogliaro, M. J. Bearpark, J. J. Heyd, E. N. Brothers, K. N. Kudin, 
 V. N. Staroverov, T. A. Keith, R. Kobayashi, J. Normand, 
 K. Raghavachari, A. P. Rendell, J. C. Burant, S. S. Iyengar, 
 J. Tomasi, M. Cossi, J. M. Millam, M. Klene, C. Adamo, R. Cammi, 
 J. W. Ochterski, R. L. Martin, K. Morokuma, O. Farkas, 
 J. B. Foresman, and D. J. Fox, Gaussian, Inc., Wallingford CT, 2016.
 
 ******************************************
 Gaussian 16:  ES64L-G16RevA.03 25-Dec-2016
                16-Jul-2026 
 ******************************************
 %chk=opt_freq.chk
 %nproc=2
 Will use up to    2 processors via shared memory.
 %mem=2GB
 ----------------------
 #sp b3lyp/6-311+G(3df)
 ----------------------
 1/38=1,172=1/1;
 2/12=2,17=6,18=5,40=1/2;
 3/5=4,6=6,7=16,11=2,25=1,30=1,74=-5/1,2,3;
 4//1;
 5/5=2,38=5/2;
 6/7=2,8=2,9=2,10=2,28=1/1;
 99/5=1,9=1/99;
 --------------------
 single point of HOSO
 --------------------
 Symbolic Z-matrix:
 Charge =  0 Multiplicity = 2
 S                    -0.14317  -0.47768   0.01442 
 O                     1.32848   0.2501   -0.04146 
 O                    -1.19626   0.55127  -0.01789 
 H                     1.225     1.27986   0.25507 
 
                          Input orientation:                          
 ---------------------------------------------------------------------
 Center     Atomic      Atomic             Coordinates (Angstroms)
 Number     Number       Type             X           Y           Z
 ---------------------------------------------------------------------
      1         16           0       -0.143170   -0.477675    0.014424
      2          8           0        1.328478    0.250099   -0.041462
      3          8           0       -1.196263    0.551268   -0.017893
      4          1           0        1.224997    1.279861    0.255065
 ---------------------------------------------------------------------
                    Distance matrix (angstroms):
                    1          2          3          4
     1  S    0.000000
     2  O    1.642719   0.000000
     3  O    1.472675   2.542750   0.000000
     4  H    2.240250   1.076590   2.543198   0.000000
 Stoichiometry    HO2S(2)
 Framework group  C1[X(HO2S)]
 Deg. of freedom     6
 Full point group                 C1      NOp   1
 Largest Abelian subgroup         C1      NOp   1
 Largest concise Abelian subgroup C1      NOp   1
                         Standard orientation:                         
 ---------------------------------------------------------------------
 Center     Atomic      Atomic             Coordinates (Angstroms)
 Number     Number       Type             X           Y           Z
 ---------------------------------------------------------------------
      1         16           0       -0.144031   -0.478692    0.017339
      2          8           0        1.329277    0.245280   -0.043927
      3          8           0       -1.194751    0.552450   -0.021471
      4          1           0        1.228290    1.277235    0.245757
 ---------------------------------------------------------------------
 Rotational constants (GHZ):          34.0749983           9.4603832           7.4261231
 Standard basis: 6-311+G(3df) (5D, 7F)
 There are   146 symmetry adapted cartesian basis functions of A   symmetry.
 There are   128 symmetry adapted basis functions of A   symmetry.
   128 basis functions,   193 primitive gaussians,   146 cartesian basis functions
    17 alpha electrons       16 beta electrons
       nuclear repulsion energy       109.9230225190 Hartrees.
 NAtoms=    4 NActive=    4 NUniq=    4 SFac= 1.00D+00 NAtFMM=   60 NAOKFM=F Big=F
 Integral buffers will be    131072 words long.
 Raffenetti 2 integral format.
 Two-electron integral symmetry is turned on.
 One-electron integrals computed using PRISM.
 NBasis=   128 RedAO= T EigKep=  9.53D-04  NBF=   128
 NBsUse=   128 1.00D-06 EigRej= -1.00D+00 NBFU=   128
 ExpMin= 4.05D-02 ExpMax= 9.34D+04 ExpMxC= 3.17D+03 IAcc=3 IRadAn=         5 AccDes= 0.00D+00
 Harris functional with IExCor=  402 and IRadAn=       5 diagonalized for initial guess.
 HarFok:  IExCor=  402 AccDes= 0.00D+00 IRadAn=         5 IDoV= 1 UseB2=F ITyADJ=14
 ICtDFT=  3500011 ScaDFX=  1.000000  1.000000  1.000000  1.000000
 FoFCou: FMM=F IPFlag=           0 FMFlag=      100000 FMFlg1=           0
         NFxFlg=           0 DoJE=T BraDBF=F KetDBF=T FulRan=T
         wScrn=  0.000000 ICntrl=       500 IOpCl=  0 I1Cent=   200000004 NGrid=           0
         NMat0=    1 NMatS0=      1 NMatT0=    0 NMatD0=    1 NMtDS0=    0 NMtDT0=    0
 Petite list used in FoFCou.
 Initial guess <Sx>= 0.0000 <Sy>= 0.0000 <Sz>= 0.5000 <S**2>= 0.7500 S= 0.5000
 Keep R1 and R2 ints in memory in canonical form, NReq=70152746.
 Requested convergence on RMS density matrix=1.00D-08 within 128 cycles.
 Requested convergence on MAX density matrix=1.00D-06.
 Requested convergence on             energy=1.00D-06.
 No special actions if energy rises.
 SCF Done:  E(UB3LYP) =  -549.285971735     A.U. after   14 cycles
            NFock= 14  Conv=0.42D-08     -V/T= 2.0021
 <Sx>= 0.0000 <Sy>= 0.0000 <Sz>= 0.5000 <S**2>= 0.7552 S= 0.5026
 <L.S>= 0.000000000000E+00
 Annihilation of the first spin contaminant:
 S**2 before annihilation     0.7552,   after     0.7500

 **********************************************************************

            Population analysis using the SCF density.

 **********************************************************************

 Orbital symmetries:
 Alpha Orbitals:
       Occupied  (A) (A) (A) (A) (A) (A) (A) (A) (A) (A) (A) (A)
                 (A) (A) (A) (A) (A)
       Virtual   (A) (A) (A) (A) (A) (A) (A) (A) (A) (A) (A) (A)
                 (A) (A) (A) (A) (A) (A) (A) (A) (A) (A) (A) (A)
                 (A) (A) (A) (A) (A) (A) (A) (A) (A) (A) (A) (A)
                 (A) (A) (A) (A) (A) (A) (A) (A) (A) (A) (A) (A)
                 (A) (A) (A) (A) (A) (A) (A) (A) (A) (A) (A) (A)
                 (A) (A) (A) (A) (A) (A) (A) (A) (A) (A) (A) (A)
                 (A) (A) (A) (A) (A) (A) (A) (A) (A) (A) (A) (A)
                 (A) (A) (A) (A) (A) (A) (A) (A) (A) (A) (A) (A)
                 (A) (A) (A) (A) (A) (A) (A) (A) (A) (A) (A) (A)
                 (A) (A) (A)
 Beta  Orbitals:
       Occupied  (A) (A) (A) (A) (A) (A) (A) (A) (A) (A) (A) (A)
                 (A) (A) (A) (A)
       Virtual   (A) (A) (A) (A) (A) (A) (A) (A) (A) (A) (A) (A)
                 (A) (A) (A) (A) (A) (A) (A) (A) (A) (A) (A) (A)
                 (A) (A) (A) (A) (A) (A) (A) (A) (A) (A) (A) (A)
                 (A) (A) (A) (A) (A) (A) (A) (A) (A) (A) (A) (A)
                 (A) (A) (A) (A) (A) (A) (A) (A) (A) (A) (A) (A)
                 (A) (A) (A) (A) (A) (A) (A) (A) (A) (A) (A) (A)
                 (A) (A) (A) (A) (A) (A) (A) (A) (A) (A) (A) (A)
                 (A) (A) (A) (A) (A) (A) (A) (A) (A) (A) (A) (A)
                 (A) (A) (A) (A) (A) (A) (A) (A) (A) (A) (A) (A)
                 (A) (A) (A) (A)
 The electronic state is 2-A.
 Alpha  occ. eigenvalues --  -88.98263 -19.20058 -19.16244  -8.05566  -6.01950
 Alpha  occ. eigenvalues --   -6.01720  -6.01386  -1.10924  -1.03690  -0.69381
 Alpha  occ. eigenvalues --   -0.53434  -0.48044  -0.47268  -0.41897  -0.38382
 Alpha  occ. eigenvalues --   -0.34274  -0.23271
 Alpha virt. eigenvalues --   -0.03874   0.00014   0.01291   0.02949   0.04659
 Alpha virt. eigenvalues --    0.07493   0.10905   0.14512   0.16488   0.17204
 Alpha virt. eigenvalues --    0.18616   0.20439   0.23024   0.24765   0.25449
 Alpha virt. eigenvalues --    0.28052   0.28705   0.29884   0.31048   0.32250
 Alpha virt. eigenvalues --    0.33130   0.41982   0.43193   0.59804   0.70305
 Alpha virt. eigenvalues --    0.73111   0.78867   0.79630   0.85598   0.88085
 Alpha virt. eigenvalues --    0.88810   0.89189   0.91603   0.93433   0.96718
 Alpha virt. eigenvalues --    1.00313   1.01169   1.03172   1.05156   1.07929
 Alpha virt. eigenvalues --    1.12655   1.19097   1.23726   1.29376   1.30018
 Alpha virt. eigenvalues --    1.32352   1.57293   1.58941   1.64969   1.71317
 Alpha virt. eigenvalues --    1.83031   1.92796   1.97734   1.99432   2.03951
 Alpha virt. eigenvalues --    2.11138   2.22777   2.26115   2.35923   3.29139
 Alpha virt. eigenvalues --    3.33106   3.36349   3.39094   3.41124   3.45455
 Alpha virt. eigenvalues --    3.47043   3.48867   3.58711   3.60301   4.43085
 Alpha virt. eigenvalues --    4.46683   4.50471   4.59306   4.79486   4.90191
 Alpha virt. eigenvalues --    4.93145   4.94394   4.95025   4.96063   4.97527
 Alpha virt. eigenvalues --    4.99913   5.00687   5.05900   5.12221   5.14596
 Alpha virt. eigenvalues --    5.23425   5.33966   5.40872   5.42827   5.52832
 Alpha virt. eigenvalues --    5.56864   5.73820   5.87189   6.44784   8.62730
 Alpha virt. eigenvalues --   14.19014  14.21975  14.23558  14.25821  14.27315
 Alpha virt. eigenvalues --   14.30096  14.32412  14.35176  14.47441  14.57836
 Alpha virt. eigenvalues --   17.21911  17.46549  17.73352  49.87575  49.96284
 Alpha virt. eigenvalues --  189.58662
  Beta  occ. eigenvalues --  -88.97870 -19.19757 -19.15248  -8.05208  -6.01739
  Beta  occ. eigenvalues --   -6.01202  -6.00460  -1.09702  -1.02420  -0.67194
  Beta  occ. eigenvalues --   -0.52400  -0.47327  -0.43864  -0.40223  -0.34970
  Beta  occ. eigenvalues --   -0.33248
  Beta virt. eigenvalues --   -0.11569  -0.03439   0.00401   0.02122   0.03464
  Beta virt. eigenvalues --    0.04923   0.07625   0.11244   0.14784   0.16887
  Beta virt. eigenvalues --    0.17449   0.19190   0.20730   0.23308   0.24837
  Beta virt. eigenvalues --    0.26652   0.28443   0.29180   0.31082   0.32598
  Beta virt. eigenvalues --    0.33001   0.33461   0.42514   0.43500   0.60239
  Beta virt. eigenvalues --    0.70886   0.73487   0.79803   0.80261   0.86512
  Beta virt. eigenvalues --    0.88461   0.89880   0.90526   0.92845   0.94140
  Beta virt. eigenvalues --    0.97612   1.01168   1.03167   1.03684   1.05461
  Beta virt. eigenvalues --    1.08636   1.13972   1.19492   1.25128   1.30121
  Beta virt. eigenvalues --    1.30417   1.32668   1.60666   1.60839   1.66553
  Beta virt. eigenvalues --    1.72943   1.83866   1.94355   1.98514   2.01898
  Beta virt. eigenvalues --    2.04059   2.11572   2.23258   2.26993   2.36327
  Beta virt. eigenvalues --    3.30186   3.34702   3.38765   3.40103   3.42510
  Beta virt. eigenvalues --    3.46964   3.48079   3.49962   3.59088   3.61445
  Beta virt. eigenvalues --    4.43866   4.46850   4.51502   4.59856   4.80116
  Beta virt. eigenvalues --    4.91104   4.94134   4.95167   4.95683   4.96807
  Beta virt. eigenvalues --    5.01445   5.02148   5.02685   5.06578   5.13272
  Beta virt. eigenvalues --    5.15961   5.24068   5.34487   5.41475   5.43742
  Beta virt. eigenvalues --    5.53305   5.58018   5.75644   5.87726   6.45205
  Beta virt. eigenvalues --    8.63223  14.20385  14.24315  14.26721  14.27541
  Beta virt. eigenvalues --   14.29456  14.30918  14.35381  14.36344  14.47988
  Beta virt. eigenvalues --   14.59559  17.23578  17.46838  17.73655  49.87896
  Beta virt. eigenvalues --   49.97248 189.59017
          Condensed to atoms (all electrons):
               1          2          3          4
     1  S   15.334390   0.002582   0.131220   0.010212
     2  O    0.002582   8.387865   0.005584   0.189196
     3  O    0.131220   0.005584   8.255041   0.001545
     4  H    0.010212   0.189196   0.001545   0.342029
          Atomic-Atomic Spin Densities.
               1          2          3          4
     1  S    0.930037  -0.102074  -0.190740  -0.002088
     2  O   -0.102074   0.153117   0.018648  -0.003986
     3  O   -0.190740   0.018648   0.470520  -0.000405
     4  H   -0.002088  -0.003986  -0.000405   0.007615
 Mulliken charges and spin densities:
               1          2
     1  S    0.521596   0.635136
     2  O   -0.585226   0.065706
     3  O   -0.393389   0.298023
     4  H    0.457019   0.001135
 Sum of Mulliken charges =  -0.00000   1.00000
 Mulliken charges and spin densities with hydrogens summed into heavy atoms:
               1          2
     1  S    0.521596   0.635136
     2  O   -0.128207   0.066841
     3  O   -0.393389   0.298023
 Electronic spatial extent (au):  <R**2>=            181.0332
 Charge=             -0.0000 electrons
 Dipole moment (field-independent basis, Debye):
    X=              1.2454    Y=              0.1750    Z=              0.4986  Tot=              1.3529
 Quadrupole moment (field-independent basis, Debye-Ang):
   XX=            -27.0732   YY=            -20.9656   ZZ=            -23.9788
   XY=              3.5815   XZ=              0.6203   YZ=              0.8145
 Traceless Quadrupole moment (field-independent basis, Debye-Ang):
   XX=             -3.0673   YY=              3.0403   ZZ=              0.0271
   XY=              3.5815   XZ=              0.6203   YZ=              0.8145
 Octapole moment (field-independent basis, Debye-Ang**2):
  XXX=              1.0412  YYY=              5.7262  ZZZ=             -0.0780  XYY=              4.9971
  XXY=              1.1248  XXZ=              0.7594  XZZ=             -0.0519  YZZ=              1.1297
  YYZ=              1.0185  XYZ=              0.9815
 Hexadecapole moment (field-independent basis, Debye-Ang**3):
 XXXX=           -147.1453 YYYY=            -53.1881 ZZZZ=            -26.0913 XXXY=              6.0977
 XXXZ=              0.9846 YYYX=              7.0770 YYYZ=              1.4803 ZZZX=              0.2818
 ZZZY=              0.4966 XXYY=            -27.4534 XXZZ=            -28.0941 YYZZ=            -14.5826
 XXYZ=              1.3458 YYXZ=              1.2492 ZZXY=              0.3415
 N-N= 1.099230225190D+02 E-N=-1.523778506673D+03  KE= 5.481440350710D+02
                          Isotropic Fermi Contact Couplings
        Atom                 a.u.       MegaHertz       Gauss      10(-4) cm-1
     1  S(33)              0.05599      19.22961       6.86160       6.41431
     2  O(17)              0.01829     -11.08619      -3.95583      -3.69796
     3  O(17)              0.03507     -21.25846      -7.58555      -7.09106
     4  H(1)               0.00046       2.04666       0.73030       0.68269
 --------------------------------------------------------
       Center         ----  Spin Dipole Couplings  ----
                      3XX-RR        3YY-RR        3ZZ-RR
 --------------------------------------------------------
     1   Atom       -1.485791     -1.602247      3.088038
     2   Atom       -0.259250     -0.222445      0.481695
     3   Atom       -0.780023     -0.783464      1.563486
     4   Atom       -0.007020      0.017674     -0.010654
 --------------------------------------------------------
                        XY            XZ            YZ
 --------------------------------------------------------
     1   Atom       -0.001439     -0.058203      0.179604
     2   Atom        0.009681      0.018036     -0.124127
     3   Atom        0.001073      0.068735      0.032746
     4   Atom        0.004934      0.000980      0.004238
 --------------------------------------------------------


 ---------------------------------------------------------------------------------
              Anisotropic Spin Dipole Couplings in Principal Axis System
 ---------------------------------------------------------------------------------

       Atom             a.u.   MegaHertz   Gauss  10(-4) cm-1        Axes

              Baa    -1.6091   -65.972   -23.541   -22.006 -0.0064  0.9992 -0.0383
     1 S(33)  Bbb    -1.4865   -60.946   -21.747   -20.329  0.9999  0.0069  0.0125
              Bcc     3.0956   126.919    45.288    42.335 -0.0127  0.0382  0.9992
 
              Baa    -0.2665    19.285     6.882     6.433  0.8757 -0.4725 -0.0995
     2 O(17)  Bbb    -0.2368    17.131     6.113     5.714  0.4824  0.8651  0.1374
              Bcc     0.5033   -36.417   -12.994   -12.147  0.0212 -0.1683  0.9855
 
              Baa    -0.7839    56.724    20.241    18.921 -0.0604  0.9981 -0.0122
     3 O(17)  Bbb    -0.7820    56.587    20.192    18.875  0.9977  0.0600 -0.0301
              Bcc     1.5660  -113.312   -40.432   -37.797  0.0293  0.0139  0.9995
 
              Baa    -0.0113    -6.025    -2.150    -2.010 -0.0742 -0.1320  0.9885
     4 H(1)   Bbb    -0.0080    -4.248    -1.516    -1.417  0.9794 -0.1963  0.0473
              Bcc     0.0193    10.274     3.666     3.427  0.1878  0.9716  0.1438
 

 ---------------------------------------------------------------------------------

 1\1\GINC-QCEXNOD57\SP\UB3LYP\6-311+G(3df)\H1O2S1(2)\ROOT\16-Jul-2026\0
 \\#sp b3lyp/6-311+G(3df)\\single point of HOSO\\0,2\S,0,-0.14317,-0.47
 7675,0.014424\O,0,1.328478,0.250099,-0.041462\O,0,-1.196263,0.551268,-
 0.017893\H,0,1.224997,1.279861,0.255065\\Version=ES64L-G16RevA.03\Stat
 e=2-A\HF=-549.2859717\S2=0.755228\S2-1=0.\S2A=0.750019\RMSD=4.203e-09\
 Dipole=0.4897513,0.0686849,0.1968051\Quadrupole=-2.2931424,2.264479,0.
 0286633,2.6488791,0.4766596,0.6225854\PG=C01 [X(H1O2S1)]\\@


 THEORY:  SUPPOSITION WHICH HAS SCIENTIFIC BASIS,
          BUT NOT EXPERIMENTALLY PROVEN.
 FACT:    A THEORY WHICH HAS BEEN PROVEN BY ENOUGH 
          MONEY TO PAY FOR THE EXPERIMENTS.

                          --  THE WIZARD OF ID
 Job cpu time:       0 days  0 hours  0 minutes 16.0 seconds.
 Elapsed time:       0 days  0 hours  0 minutes  8.3 seconds.
 File lengths (MBytes):  RWF=     16 Int=      0 D2E=      0 Chk=      2 Scr=      1
 Normal termination of Gaussian 16 at Thu Jul 16 14:38:32 2026.
