 Entering Gaussian System, Link 0=g16
 Initial command:
 /soft/g16.a03/g16/l1.exe "/scr/macias/296041.qcexmaster.qcexval.uv.es_vib5_0.40/Gau-16416.inp" -scrdir="/scr/macias/296041.qcexmaster.qcexval.uv.es_vib5_0.40/"
 Entering Link 1 = /soft/g16.a03/g16/l1.exe PID=     16417.
  
 Copyright (c) 1988,1990,1992,1993,1995,1998,2003,2009,2016,
            Gaussian, Inc.  All Rights Reserved.
  
 This is part of the Gaussian(R) 16 program.  It is based on
 the Gaussian(R) 09 system (copyright 2009, Gaussian, Inc.),
 the Gaussian(R) 03 system (copyright 2003, Gaussian, Inc.),
 the Gaussian(R) 98 system (copyright 1998, Gaussian, Inc.),
 the Gaussian(R) 94 system (copyright 1995, Gaussian, Inc.),
 the Gaussian 92(TM) system (copyright 1992, Gaussian, Inc.),
 the Gaussian 90(TM) system (copyright 1990, Gaussian, Inc.),
 the Gaussian 88(TM) system (copyright 1988, Gaussian, Inc.),
 the Gaussian 86(TM) system (copyright 1986, Carnegie Mellon
 University), and the Gaussian 82(TM) system (copyright 1983,
 Carnegie Mellon University). Gaussian is a federally registered
 trademark of Gaussian, Inc.
  
 This software contains proprietary and confidential information,
 including trade secrets, belonging to Gaussian, Inc.
  
 This software is provided under written license and may be
 used, copied, transmitted, or stored only in accord with that
 written license.
  
 The following legend is applicable only to US Government
 contracts under FAR:
  
                    RESTRICTED RIGHTS LEGEND
  
 Use, reproduction and disclosure by the US Government is
 subject to restrictions as set forth in subparagraphs (a)
 and (c) of the Commercial Computer Software - Restricted
 Rights clause in FAR 52.227-19.
  
 Gaussian, Inc.
 340 Quinnipiac St., Bldg. 40, Wallingford CT 06492
  
  
 ---------------------------------------------------------------
 Warning -- This program may not be used in any manner that
 competes with the business of Gaussian, Inc. or will provide
 assistance to any competitor of Gaussian, Inc.  The licensee
 of this program is prohibited from giving any competitor of
 Gaussian, Inc. access to this program.  By using this program,
 the user acknowledges that Gaussian, Inc. is engaged in the
 business of creating and licensing software in the field of
 computational chemistry and represents and warrants to the
 licensee that it is not a competitor of Gaussian, Inc. and that
 it will not use this program in any manner prohibited above.
 ---------------------------------------------------------------
  

 Cite this work as:
 Gaussian 16, Revision A.03,
 M. J. Frisch, G. W. Trucks, H. B. Schlegel, G. E. Scuseria, 
 M. A. Robb, J. R. Cheeseman, G. Scalmani, V. Barone, 
 G. A. Petersson, H. Nakatsuji, X. Li, M. Caricato, A. V. Marenich, 
 J. Bloino, B. G. Janesko, R. Gomperts, B. Mennucci, H. P. Hratchian, 
 J. V. Ortiz, A. F. Izmaylov, J. L. Sonnenberg, D. Williams-Young, 
 F. Ding, F. Lipparini, F. Egidi, J. Goings, B. Peng, A. Petrone, 
 T. Henderson, D. Ranasinghe, V. G. Zakrzewski, J. Gao, N. Rega, 
 G. Zheng, W. Liang, M. Hada, M. Ehara, K. Toyota, R. Fukuda, 
 J. Hasegawa, M. Ishida, T. Nakajima, Y. Honda, O. Kitao, H. Nakai, 
 T. Vreven, K. Throssell, J. A. Montgomery, Jr., J. E. Peralta, 
 F. Ogliaro, M. J. Bearpark, J. J. Heyd, E. N. Brothers, K. N. Kudin, 
 V. N. Staroverov, T. A. Keith, R. Kobayashi, J. Normand, 
 K. Raghavachari, A. P. Rendell, J. C. Burant, S. S. Iyengar, 
 J. Tomasi, M. Cossi, J. M. Millam, M. Klene, C. Adamo, R. Cammi, 
 J. W. Ochterski, R. L. Martin, K. Morokuma, O. Farkas, 
 J. B. Foresman, and D. J. Fox, Gaussian, Inc., Wallingford CT, 2016.
 
 ******************************************
 Gaussian 16:  ES64L-G16RevA.03 25-Dec-2016
                16-Jul-2026 
 ******************************************
 %chk=opt_freq.chk
 %nproc=2
 Will use up to    2 processors via shared memory.
 %mem=2GB
 ----------------------
 #sp b3lyp/6-311+G(3df)
 ----------------------
 1/38=1,172=1/1;
 2/12=2,17=6,18=5,40=1/2;
 3/5=4,6=6,7=16,11=2,25=1,30=1,74=-5/1,2,3;
 4//1;
 5/5=2,38=5/2;
 6/7=2,8=2,9=2,10=2,28=1/1;
 99/5=1,9=1/99;
 --------------------
 single point of HOSO
 --------------------
 Symbolic Z-matrix:
 Charge =  0 Multiplicity = 2
 S                    -0.20317  -0.40168   0.01442 
 O                     1.34848   0.2401   -0.04746 
 O                    -1.07226   0.41927  -0.01389 
 H                     0.901     1.12386   0.27207 
 
                          Input orientation:                          
 ---------------------------------------------------------------------
 Center     Atomic      Atomic             Coordinates (Angstroms)
 Number     Number       Type             X           Y           Z
 ---------------------------------------------------------------------
      1         16           0       -0.203170   -0.401675    0.014424
      2          8           0        1.348478    0.240099   -0.047462
      3          8           0       -1.072263    0.419268   -0.013893
      4          1           0        0.900997    1.123861    0.272065
 ---------------------------------------------------------------------
                    Distance matrix (angstroms):
                    1          2          3          4
     1  S    0.000000
     2  O    1.680272   0.000000
     3  O    1.195856   2.427595   0.000000
     4  H    1.900743   1.040852   2.114705   0.000000
 Stoichiometry    HO2S(2)
 Framework group  C1[X(HO2S)]
 Deg. of freedom     6
 Full point group                 C1      NOp   1
 Largest Abelian subgroup         C1      NOp   1
 Largest concise Abelian subgroup C1      NOp   1
                         Standard orientation:                         
 ---------------------------------------------------------------------
 Center     Atomic      Atomic             Coordinates (Angstroms)
 Number     Number       Type             X           Y           Z
 ---------------------------------------------------------------------
      1         16           0       -0.225347   -0.386403    0.018530
      2          8           0        1.366110    0.149468   -0.039968
      3          8           0       -1.037449    0.490080   -0.029852
      4          1           0        0.976253    1.066066    0.262076
 ---------------------------------------------------------------------
 Rotational constants (GHZ):          49.5911084          10.1534277           8.4587395
 Standard basis: 6-311+G(3df) (5D, 7F)
 There are   146 symmetry adapted cartesian basis functions of A   symmetry.
 There are   128 symmetry adapted basis functions of A   symmetry.
   128 basis functions,   193 primitive gaussians,   146 cartesian basis functions
    17 alpha electrons       16 beta electrons
       nuclear repulsion energy       121.4275247029 Hartrees.
 NAtoms=    4 NActive=    4 NUniq=    4 SFac= 1.00D+00 NAtFMM=   60 NAOKFM=F Big=F
 Integral buffers will be    131072 words long.
 Raffenetti 2 integral format.
 Two-electron integral symmetry is turned on.
 One-electron integrals computed using PRISM.
 NBasis=   128 RedAO= T EigKep=  4.85D-04  NBF=   128
 NBsUse=   128 1.00D-06 EigRej= -1.00D+00 NBFU=   128
 ExpMin= 4.05D-02 ExpMax= 9.34D+04 ExpMxC= 3.17D+03 IAcc=3 IRadAn=         5 AccDes= 0.00D+00
 Harris functional with IExCor=  402 and IRadAn=       5 diagonalized for initial guess.
 HarFok:  IExCor=  402 AccDes= 0.00D+00 IRadAn=         5 IDoV= 1 UseB2=F ITyADJ=14
 ICtDFT=  3500011 ScaDFX=  1.000000  1.000000  1.000000  1.000000
 FoFCou: FMM=F IPFlag=           0 FMFlag=      100000 FMFlg1=           0
         NFxFlg=           0 DoJE=T BraDBF=F KetDBF=T FulRan=T
         wScrn=  0.000000 ICntrl=       500 IOpCl=  0 I1Cent=   200000004 NGrid=           0
         NMat0=    1 NMatS0=      1 NMatT0=    0 NMatD0=    1 NMtDS0=    0 NMtDT0=    0
 Petite list used in FoFCou.
 Initial guess <Sx>= 0.0000 <Sy>= 0.0000 <Sz>= 0.5000 <S**2>= 0.7500 S= 0.5000
 Keep R1 and R2 ints in memory in canonical form, NReq=70152972.
 Requested convergence on RMS density matrix=1.00D-08 within 128 cycles.
 Requested convergence on MAX density matrix=1.00D-06.
 Requested convergence on             energy=1.00D-06.
 No special actions if energy rises.
 SCF Done:  E(UB3LYP) =  -549.130282602     A.U. after   13 cycles
            NFock= 13  Conv=0.50D-08     -V/T= 1.9989
 <Sx>= 0.0000 <Sy>= 0.0000 <Sz>= 0.5000 <S**2>= 0.7546 S= 0.5023
 <L.S>= 0.000000000000E+00
 Annihilation of the first spin contaminant:
 S**2 before annihilation     0.7546,   after     0.7500

 **********************************************************************

            Population analysis using the SCF density.

 **********************************************************************

 Orbital symmetries:
 Alpha Orbitals:
       Occupied  (A) (A) (A) (A) (A) (A) (A) (A) (A) (A) (A) (A)
                 (A) (A) (A) (A) (A)
       Virtual   (A) (A) (A) (A) (A) (A) (A) (A) (A) (A) (A) (A)
                 (A) (A) (A) (A) (A) (A) (A) (A) (A) (A) (A) (A)
                 (A) (A) (A) (A) (A) (A) (A) (A) (A) (A) (A) (A)
                 (A) (A) (A) (A) (A) (A) (A) (A) (A) (A) (A) (A)
                 (A) (A) (A) (A) (A) (A) (A) (A) (A) (A) (A) (A)
                 (A) (A) (A) (A) (A) (A) (A) (A) (A) (A) (A) (A)
                 (A) (A) (A) (A) (A) (A) (A) (A) (A) (A) (A) (A)
                 (A) (A) (A) (A) (A) (A) (A) (A) (A) (A) (A) (A)
                 (A) (A) (A) (A) (A) (A) (A) (A) (A) (A) (A) (A)
                 (A) (A) (A)
 Beta  Orbitals:
       Occupied  (A) (A) (A) (A) (A) (A) (A) (A) (A) (A) (A) (A)
                 (A) (A) (A) (A)
       Virtual   (A) (A) (A) (A) (A) (A) (A) (A) (A) (A) (A) (A)
                 (A) (A) (A) (A) (A) (A) (A) (A) (A) (A) (A) (A)
                 (A) (A) (A) (A) (A) (A) (A) (A) (A) (A) (A) (A)
                 (A) (A) (A) (A) (A) (A) (A) (A) (A) (A) (A) (A)
                 (A) (A) (A) (A) (A) (A) (A) (A) (A) (A) (A) (A)
                 (A) (A) (A) (A) (A) (A) (A) (A) (A) (A) (A) (A)
                 (A) (A) (A) (A) (A) (A) (A) (A) (A) (A) (A) (A)
                 (A) (A) (A) (A) (A) (A) (A) (A) (A) (A) (A) (A)
                 (A) (A) (A) (A) (A) (A) (A) (A) (A) (A) (A) (A)
                 (A) (A) (A) (A)
 The electronic state is 2-A.
 Alpha  occ. eigenvalues --  -88.94617 -19.18150 -19.16547  -8.03568  -5.99850
 Alpha  occ. eigenvalues --   -5.99491  -5.99286  -1.25520  -1.05343  -0.64816
 Alpha  occ. eigenvalues --   -0.56640  -0.55704  -0.52417  -0.46105  -0.38424
 Alpha  occ. eigenvalues --   -0.35130  -0.19547
 Alpha virt. eigenvalues --   -0.01470   0.01044   0.02975   0.03832   0.04509
 Alpha virt. eigenvalues --    0.09673   0.11022   0.14673   0.16615   0.17252
 Alpha virt. eigenvalues --    0.18353   0.19911   0.23605   0.24666   0.24899
 Alpha virt. eigenvalues --    0.27951   0.29430   0.30115   0.33676   0.34108
 Alpha virt. eigenvalues --    0.36170   0.44032   0.49721   0.65016   0.73679
 Alpha virt. eigenvalues --    0.74916   0.78600   0.79773   0.83198   0.83986
 Alpha virt. eigenvalues --    0.87436   0.90131   0.91210   0.96401   0.98385
 Alpha virt. eigenvalues --    1.00217   1.01332   1.02668   1.09036   1.13032
 Alpha virt. eigenvalues --    1.18792   1.23437   1.26619   1.38088   1.40433
 Alpha virt. eigenvalues --    1.44624   1.57729   1.60020   1.74111   1.81406
 Alpha virt. eigenvalues --    1.88034   1.90769   1.95971   2.01166   2.03438
 Alpha virt. eigenvalues --    2.04646   2.26348   2.47861   2.55481   3.29445
 Alpha virt. eigenvalues --    3.31837   3.34869   3.41791   3.43790   3.47699
 Alpha virt. eigenvalues --    3.55747   3.60086   3.69251   3.80228   4.45502
 Alpha virt. eigenvalues --    4.58192   4.67165   4.74286   4.78433   4.90519
 Alpha virt. eigenvalues --    4.92176   4.93091   4.94811   4.96557   4.97676
 Alpha virt. eigenvalues --    5.00999   5.10008   5.11930   5.18154   5.28800
 Alpha virt. eigenvalues --    5.36238   5.39654   5.43679   5.46269   5.60858
 Alpha virt. eigenvalues --    5.76088   5.80007   6.28561   6.58248   8.90262
 Alpha virt. eigenvalues --   14.20202  14.22514  14.23157  14.27717  14.29308
 Alpha virt. eigenvalues --   14.31108  14.40119  14.45636  14.57570  14.74828
 Alpha virt. eigenvalues --   17.31692  17.56998  18.27345  49.91075  50.27219
 Alpha virt. eigenvalues --  190.12716
  Beta  occ. eigenvalues --  -88.94240 -19.17839 -19.15815  -8.03208  -5.99631
  Beta  occ. eigenvalues --   -5.99106  -5.98252  -1.24382  -1.04653  -0.62377
  Beta  occ. eigenvalues --   -0.55516  -0.52827  -0.51371  -0.45159  -0.36338
  Beta  occ. eigenvalues --   -0.33619
  Beta virt. eigenvalues --   -0.07653  -0.01246   0.01475   0.03418   0.04370
  Beta virt. eigenvalues --    0.05171   0.10058   0.11389   0.14929   0.16972
  Beta virt. eigenvalues --    0.17492   0.18781   0.20154   0.23796   0.25038
  Beta virt. eigenvalues --    0.25940   0.28370   0.30334   0.31133   0.34295
  Beta virt. eigenvalues --    0.34522   0.38211   0.44527   0.49904   0.65529
  Beta virt. eigenvalues --    0.74102   0.75896   0.79643   0.80189   0.83614
  Beta virt. eigenvalues --    0.84732   0.89241   0.90565   0.92499   0.96957
  Beta virt. eigenvalues --    0.99088   1.01429   1.01828   1.04514   1.09311
  Beta virt. eigenvalues --    1.14051   1.19571   1.23791   1.26864   1.39006
  Beta virt. eigenvalues --    1.41601   1.45084   1.61671   1.62426   1.76044
  Beta virt. eigenvalues --    1.82935   1.88812   1.92324   1.96714   2.01464
  Beta virt. eigenvalues --    2.04996   2.06458   2.26848   2.48070   2.56607
  Beta virt. eigenvalues --    3.30703   3.33348   3.36404   3.42528   3.44301
  Beta virt. eigenvalues --    3.48602   3.56272   3.62123   3.69554   3.80877
  Beta virt. eigenvalues --    4.46315   4.58759   4.68038   4.74469   4.79906
  Beta virt. eigenvalues --    4.91670   4.93298   4.94212   4.95759   4.97295
  Beta virt. eigenvalues --    4.98537   5.01517   5.10438   5.14237   5.19153
  Beta virt. eigenvalues --    5.29807   5.36859   5.40427   5.44436   5.46965
  Beta virt. eigenvalues --    5.61498   5.76376   5.81670   6.28972   6.58685
  Beta virt. eigenvalues --    8.90802  14.21838  14.24862  14.25481  14.28917
  Beta virt. eigenvalues --   14.30397  14.32059  14.40501  14.48404  14.58030
  Beta virt. eigenvalues --   14.76015  17.33352  17.57285  18.27675  49.91383
  Beta virt. eigenvalues --   50.27938 190.13059
          Condensed to atoms (all electrons):
               1          2          3          4
     1  S   15.744621  -0.047140  -0.215587   0.012370
     2  O   -0.047140   8.487561   0.018068   0.192554
     3  O   -0.215587   0.018068   8.503113  -0.005260
     4  H    0.012370   0.192554  -0.005260   0.354696
          Atomic-Atomic Spin Densities.
               1          2          3          4
     1  S    1.233523  -0.122830  -0.319024  -0.006233
     2  O   -0.122830   0.159463   0.027274  -0.005414
     3  O   -0.319024   0.027274   0.446306   0.001111
     4  H   -0.006233  -0.005414   0.001111   0.010939
 Mulliken charges and spin densities:
               1          2
     1  S    0.505737   0.785435
     2  O   -0.651042   0.058493
     3  O   -0.300334   0.155668
     4  H    0.445640   0.000404
 Sum of Mulliken charges =  -0.00000   1.00000
 Mulliken charges and spin densities with hydrogens summed into heavy atoms:
               1          2
     1  S    0.505737   0.785435
     2  O   -0.205403   0.058897
     3  O   -0.300334   0.155668
 Electronic spatial extent (au):  <R**2>=            164.5798
 Charge=             -0.0000 electrons
 Dipole moment (field-independent basis, Debye):
    X=             -0.5048    Y=              0.6579    Z=              0.4238  Tot=              0.9313
 Quadrupole moment (field-independent basis, Debye-Ang):
   XX=            -26.6463   YY=            -22.0658   ZZ=            -23.6307
   XY=              2.0732   XZ=              0.3930   YZ=              0.7613
 Traceless Quadrupole moment (field-independent basis, Debye-Ang):
   XX=             -2.5320   YY=              2.0484   ZZ=              0.4836
   XY=              2.0732   XZ=              0.3930   YZ=              0.7613
 Octapole moment (field-independent basis, Debye-Ang**2):
  XXX=             -5.1469  YYY=              5.1330  ZZZ=             -0.3213  XYY=              2.5701
  XXY=             -0.5866  XXZ=              0.3812  XZZ=             -1.1176  YZZ=              1.8944
  YYZ=              0.7731  XYZ=              0.7250
 Hexadecapole moment (field-independent basis, Debye-Ang**3):
 XXXX=           -134.6782 YYYY=            -46.7965 ZZZZ=            -26.6419 XXXY=              1.7959
 XXXZ=              0.1669 YYYX=              1.8511 YYYZ=              0.8713 ZZZX=              0.2288
 ZZZY=              0.5572 XXYY=            -27.5305 XXZZ=            -25.9678 YYZZ=            -13.2010
 XXYZ=              0.9636 YYXZ=              0.6537 ZZXY=             -0.3136
 N-N= 1.214275247029D+02 E-N=-1.547566996751D+03  KE= 5.497623782081D+02
                          Isotropic Fermi Contact Couplings
        Atom                 a.u.       MegaHertz       Gauss      10(-4) cm-1
     1  S(33)              0.04682      16.08147       5.73827       5.36420
     2  O(17)              0.01478      -8.95939      -3.19693      -2.98853
     3  O(17)              0.02733     -16.57026      -5.91268      -5.52724
     4  H(1)               0.00024       1.05408       0.37612       0.35160
 --------------------------------------------------------
       Center         ----  Spin Dipole Couplings  ----
                      3XX-RR        3YY-RR        3ZZ-RR
 --------------------------------------------------------
     1   Atom       -1.422445     -1.549136      2.971581
     2   Atom       -0.252437     -0.244295      0.496732
     3   Atom       -0.585132     -0.583015      1.168148
     4   Atom       -0.002319      0.017523     -0.015204
 --------------------------------------------------------
                        XY            XZ            YZ
 --------------------------------------------------------
     1   Atom       -0.019979      0.067842      0.344395
     2   Atom        0.010688      0.010956     -0.088129
     3   Atom       -0.019377      0.061492      0.094935
     4   Atom        0.001637     -0.000302      0.004353
 --------------------------------------------------------


 ---------------------------------------------------------------------------------
              Anisotropic Spin Dipole Couplings in Principal Axis System
 ---------------------------------------------------------------------------------

       Atom             a.u.   MegaHertz   Gauss  10(-4) cm-1        Axes

              Baa    -1.5792   -64.748   -23.104   -21.597  0.1587  0.9843 -0.0769
     1 S(33)  Bbb    -1.4194   -58.194   -20.765   -19.412  0.9872 -0.1594 -0.0028
              Bcc     2.9987   122.942    43.869    41.009  0.0150  0.0754  0.9970
 
              Baa    -0.2655    19.214     6.856     6.409 -0.6756  0.7312  0.0942
     2 O(17)  Bbb    -0.2417    17.486     6.240     5.833  0.7371  0.6722  0.0693
              Bcc     0.5072   -36.700   -13.095   -12.242  0.0127 -0.1163  0.9931
 
              Baa    -0.6103    44.163    15.759    14.731  0.6993  0.7121 -0.0622
     3 O(17)  Bbb    -0.5650    40.884    14.588    13.637  0.7140 -0.7000  0.0130
              Bcc     1.1753   -85.047   -30.347   -28.369  0.0343  0.0535  0.9980
 
              Baa    -0.0158    -8.426    -3.007    -2.811  0.0381 -0.1313  0.9906
     4 H(1)   Bbb    -0.0024    -1.292    -0.461    -0.431  0.9963 -0.0713 -0.0478
              Bcc     0.0182     9.718     3.468     3.242  0.0769  0.9888  0.1281
 

 ---------------------------------------------------------------------------------

 1\1\GINC-QCEXNOD57\SP\UB3LYP\6-311+G(3df)\H1O2S1(2)\ROOT\16-Jul-2026\0
 \\#sp b3lyp/6-311+G(3df)\\single point of HOSO\\0,2\S,0,-0.20317,-0.40
 1675,0.014424\O,0,1.348478,0.240099,-0.047462\O,0,-1.072263,0.419268,-
 0.013893\H,0,0.900997,1.123861,0.272065\\Version=ES64L-G16RevA.03\Stat
 e=2-A\HF=-549.1302826\S2=0.754559\S2-1=0.\S2A=0.750012\RMSD=4.970e-09\
 Dipole=-0.2139771,0.2424057,0.1723297\Quadrupole=-2.0678395,1.6948527,
 0.3729868,1.3017872,0.294619,0.593696\PG=C01 [X(H1O2S1)]\\@


 THE WORLD IS MADE UP OF THE WILLS, THE WON'TS, AND THE CANT'S:
 THE WILLS DO EVERYTHING,
 THE WON'TS DO NOTHING,
 THE CAN'TS CAN'T DO ANYTHING.

                               -- FROM WALT DISNEY'S "BLACK HOLE"
 Job cpu time:       0 days  0 hours  0 minutes 15.7 seconds.
 Elapsed time:       0 days  0 hours  0 minutes  8.2 seconds.
 File lengths (MBytes):  RWF=     16 Int=      0 D2E=      0 Chk=      2 Scr=      1
 Normal termination of Gaussian 16 at Thu Jul 16 14:38:31 2026.
