 Entering Gaussian System, Link 0=g16
 Initial command:
 /soft/g16.a03/g16/l1.exe "/scr/macias/296025.qcexmaster.qcexval.uv.es_vib4_-0.20/Gau-15717.inp" -scrdir="/scr/macias/296025.qcexmaster.qcexval.uv.es_vib4_-0.20/"
 Entering Link 1 = /soft/g16.a03/g16/l1.exe PID=     15722.
  
 Copyright (c) 1988,1990,1992,1993,1995,1998,2003,2009,2016,
            Gaussian, Inc.  All Rights Reserved.
  
 This is part of the Gaussian(R) 16 program.  It is based on
 the Gaussian(R) 09 system (copyright 2009, Gaussian, Inc.),
 the Gaussian(R) 03 system (copyright 2003, Gaussian, Inc.),
 the Gaussian(R) 98 system (copyright 1998, Gaussian, Inc.),
 the Gaussian(R) 94 system (copyright 1995, Gaussian, Inc.),
 the Gaussian 92(TM) system (copyright 1992, Gaussian, Inc.),
 the Gaussian 90(TM) system (copyright 1990, Gaussian, Inc.),
 the Gaussian 88(TM) system (copyright 1988, Gaussian, Inc.),
 the Gaussian 86(TM) system (copyright 1986, Carnegie Mellon
 University), and the Gaussian 82(TM) system (copyright 1983,
 Carnegie Mellon University). Gaussian is a federally registered
 trademark of Gaussian, Inc.
  
 This software contains proprietary and confidential information,
 including trade secrets, belonging to Gaussian, Inc.
  
 This software is provided under written license and may be
 used, copied, transmitted, or stored only in accord with that
 written license.
  
 The following legend is applicable only to US Government
 contracts under FAR:
  
                    RESTRICTED RIGHTS LEGEND
  
 Use, reproduction and disclosure by the US Government is
 subject to restrictions as set forth in subparagraphs (a)
 and (c) of the Commercial Computer Software - Restricted
 Rights clause in FAR 52.227-19.
  
 Gaussian, Inc.
 340 Quinnipiac St., Bldg. 40, Wallingford CT 06492
  
  
 ---------------------------------------------------------------
 Warning -- This program may not be used in any manner that
 competes with the business of Gaussian, Inc. or will provide
 assistance to any competitor of Gaussian, Inc.  The licensee
 of this program is prohibited from giving any competitor of
 Gaussian, Inc. access to this program.  By using this program,
 the user acknowledges that Gaussian, Inc. is engaged in the
 business of creating and licensing software in the field of
 computational chemistry and represents and warrants to the
 licensee that it is not a competitor of Gaussian, Inc. and that
 it will not use this program in any manner prohibited above.
 ---------------------------------------------------------------
  

 Cite this work as:
 Gaussian 16, Revision A.03,
 M. J. Frisch, G. W. Trucks, H. B. Schlegel, G. E. Scuseria, 
 M. A. Robb, J. R. Cheeseman, G. Scalmani, V. Barone, 
 G. A. Petersson, H. Nakatsuji, X. Li, M. Caricato, A. V. Marenich, 
 J. Bloino, B. G. Janesko, R. Gomperts, B. Mennucci, H. P. Hratchian, 
 J. V. Ortiz, A. F. Izmaylov, J. L. Sonnenberg, D. Williams-Young, 
 F. Ding, F. Lipparini, F. Egidi, J. Goings, B. Peng, A. Petrone, 
 T. Henderson, D. Ranasinghe, V. G. Zakrzewski, J. Gao, N. Rega, 
 G. Zheng, W. Liang, M. Hada, M. Ehara, K. Toyota, R. Fukuda, 
 J. Hasegawa, M. Ishida, T. Nakajima, Y. Honda, O. Kitao, H. Nakai, 
 T. Vreven, K. Throssell, J. A. Montgomery, Jr., J. E. Peralta, 
 F. Ogliaro, M. J. Bearpark, J. J. Heyd, E. N. Brothers, K. N. Kudin, 
 V. N. Staroverov, T. A. Keith, R. Kobayashi, J. Normand, 
 K. Raghavachari, A. P. Rendell, J. C. Burant, S. S. Iyengar, 
 J. Tomasi, M. Cossi, J. M. Millam, M. Klene, C. Adamo, R. Cammi, 
 J. W. Ochterski, R. L. Martin, K. Morokuma, O. Farkas, 
 J. B. Foresman, and D. J. Fox, Gaussian, Inc., Wallingford CT, 2016.
 
 ******************************************
 Gaussian 16:  ES64L-G16RevA.03 25-Dec-2016
                16-Jul-2026 
 ******************************************
 %chk=opt_freq.chk
 %nproc=2
 Will use up to    2 processors via shared memory.
 %mem=2GB
 ----------------------
 #sp b3lyp/6-311+G(3df)
 ----------------------
 1/38=1,172=1/1;
 2/12=2,17=6,18=5,40=1/2;
 3/5=4,6=6,7=16,11=2,25=1,30=1,74=-5/1,2,3;
 4//1;
 5/5=2,38=5/2;
 6/7=2,8=2,9=2,10=2,28=1/1;
 99/5=1,9=1/99;
 --------------------
 single point of HOSO
 --------------------
 Symbolic Z-matrix:
 Charge =  0 Multiplicity = 2
 S                    -0.15317  -0.47968   0.01242 
 O                     1.31848   0.2681   -0.03546 
 O                    -1.17826   0.54127  -0.01789 
 H                     1.425     1.22186   0.19807 
 
                          Input orientation:                          
 ---------------------------------------------------------------------
 Center     Atomic      Atomic             Coordinates (Angstroms)
 Number     Number       Type             X           Y           Z
 ---------------------------------------------------------------------
      1         16           0       -0.153170   -0.479675    0.012424
      2          8           0        1.318478    0.268099   -0.035462
      3          8           0       -1.178263    0.541268   -0.017893
      4          1           0        1.424997    1.221861    0.198065
 ---------------------------------------------------------------------
                    Distance matrix (angstroms):
                    1          2          3          4
     1  S    0.000000
     2  O    1.651426   0.000000
     3  O    1.447087   2.511702   0.000000
     4  H    2.328153   0.987696   2.699409   0.000000
 Stoichiometry    HO2S(2)
 Framework group  C1[X(HO2S)]
 Deg. of freedom     6
 Full point group                 C1      NOp   1
 Largest Abelian subgroup         C1      NOp   1
 Largest concise Abelian subgroup C1      NOp   1
                         Standard orientation:                         
 ---------------------------------------------------------------------
 Center     Atomic      Atomic             Coordinates (Angstroms)
 Number     Number       Type             X           Y           Z
 ---------------------------------------------------------------------
      1         16           0       -0.171911   -0.474911    0.013125
      2          8           0        1.323659    0.223664   -0.036554
      3          8           0       -1.162608    0.579518   -0.014414
      4          1           0        1.462166    1.173121    0.197735
 ---------------------------------------------------------------------
 Rotational constants (GHZ):          34.2899328           9.5616875           7.4908423
 Standard basis: 6-311+G(3df) (5D, 7F)
 There are   146 symmetry adapted cartesian basis functions of A   symmetry.
 There are   128 symmetry adapted basis functions of A   symmetry.
   128 basis functions,   193 primitive gaussians,   146 cartesian basis functions
    17 alpha electrons       16 beta electrons
       nuclear repulsion energy       110.7984787829 Hartrees.
 NAtoms=    4 NActive=    4 NUniq=    4 SFac= 1.00D+00 NAtFMM=   60 NAOKFM=F Big=F
 Integral buffers will be    131072 words long.
 Raffenetti 2 integral format.
 Two-electron integral symmetry is turned on.
 One-electron integrals computed using PRISM.
 NBasis=   128 RedAO= T EigKep=  9.07D-04  NBF=   128
 NBsUse=   128 1.00D-06 EigRej= -1.00D+00 NBFU=   128
 ExpMin= 4.05D-02 ExpMax= 9.34D+04 ExpMxC= 3.17D+03 IAcc=3 IRadAn=         5 AccDes= 0.00D+00
 Harris functional with IExCor=  402 and IRadAn=       5 diagonalized for initial guess.
 HarFok:  IExCor=  402 AccDes= 0.00D+00 IRadAn=         5 IDoV= 1 UseB2=F ITyADJ=14
 ICtDFT=  3500011 ScaDFX=  1.000000  1.000000  1.000000  1.000000
 FoFCou: FMM=F IPFlag=           0 FMFlag=      100000 FMFlg1=           0
         NFxFlg=           0 DoJE=T BraDBF=F KetDBF=T FulRan=T
         wScrn=  0.000000 ICntrl=       500 IOpCl=  0 I1Cent=   200000004 NGrid=           0
         NMat0=    1 NMatS0=      1 NMatT0=    0 NMatD0=    1 NMtDS0=    0 NMtDT0=    0
 Petite list used in FoFCou.
 Initial guess <Sx>= 0.0000 <Sy>= 0.0000 <Sz>= 0.5000 <S**2>= 0.7500 S= 0.5000
 Keep R1 and R2 ints in memory in canonical form, NReq=70152759.
 Requested convergence on RMS density matrix=1.00D-08 within 128 cycles.
 Requested convergence on MAX density matrix=1.00D-06.
 Requested convergence on             energy=1.00D-06.
 No special actions if energy rises.
 SCF Done:  E(UB3LYP) =  -549.289604571     A.U. after   14 cycles
            NFock= 14  Conv=0.32D-08     -V/T= 2.0018
 <Sx>= 0.0000 <Sy>= 0.0000 <Sz>= 0.5000 <S**2>= 0.7551 S= 0.5025
 <L.S>= 0.000000000000E+00
 Annihilation of the first spin contaminant:
 S**2 before annihilation     0.7551,   after     0.7500

 **********************************************************************

            Population analysis using the SCF density.

 **********************************************************************

 Orbital symmetries:
 Alpha Orbitals:
       Occupied  (A) (A) (A) (A) (A) (A) (A) (A) (A) (A) (A) (A)
                 (A) (A) (A) (A) (A)
       Virtual   (A) (A) (A) (A) (A) (A) (A) (A) (A) (A) (A) (A)
                 (A) (A) (A) (A) (A) (A) (A) (A) (A) (A) (A) (A)
                 (A) (A) (A) (A) (A) (A) (A) (A) (A) (A) (A) (A)
                 (A) (A) (A) (A) (A) (A) (A) (A) (A) (A) (A) (A)
                 (A) (A) (A) (A) (A) (A) (A) (A) (A) (A) (A) (A)
                 (A) (A) (A) (A) (A) (A) (A) (A) (A) (A) (A) (A)
                 (A) (A) (A) (A) (A) (A) (A) (A) (A) (A) (A) (A)
                 (A) (A) (A) (A) (A) (A) (A) (A) (A) (A) (A) (A)
                 (A) (A) (A) (A) (A) (A) (A) (A) (A) (A) (A) (A)
                 (A) (A) (A)
 Beta  Orbitals:
       Occupied  (A) (A) (A) (A) (A) (A) (A) (A) (A) (A) (A) (A)
                 (A) (A) (A) (A)
       Virtual   (A) (A) (A) (A) (A) (A) (A) (A) (A) (A) (A) (A)
                 (A) (A) (A) (A) (A) (A) (A) (A) (A) (A) (A) (A)
                 (A) (A) (A) (A) (A) (A) (A) (A) (A) (A) (A) (A)
                 (A) (A) (A) (A) (A) (A) (A) (A) (A) (A) (A) (A)
                 (A) (A) (A) (A) (A) (A) (A) (A) (A) (A) (A) (A)
                 (A) (A) (A) (A) (A) (A) (A) (A) (A) (A) (A) (A)
                 (A) (A) (A) (A) (A) (A) (A) (A) (A) (A) (A) (A)
                 (A) (A) (A) (A) (A) (A) (A) (A) (A) (A) (A) (A)
                 (A) (A) (A) (A) (A) (A) (A) (A) (A) (A) (A) (A)
                 (A) (A) (A) (A)
 The electronic state is 2-A.
 Alpha  occ. eigenvalues --  -88.98369 -19.18457 -19.16045  -8.05660  -6.02072
 Alpha  occ. eigenvalues --   -6.01804  -6.01466  -1.11490  -1.04300  -0.70750
 Alpha  occ. eigenvalues --   -0.54258  -0.47781  -0.47135  -0.41524  -0.38201
 Alpha  occ. eigenvalues --   -0.34332  -0.23020
 Alpha virt. eigenvalues --   -0.03531   0.00134   0.01913   0.04180   0.04856
 Alpha virt. eigenvalues --    0.07554   0.11071   0.15371   0.16578   0.17891
 Alpha virt. eigenvalues --    0.18876   0.21337   0.22667   0.25076   0.25684
 Alpha virt. eigenvalues --    0.27779   0.28895   0.30372   0.31455   0.32673
 Alpha virt. eigenvalues --    0.33651   0.42428   0.47236   0.60591   0.70724
 Alpha virt. eigenvalues --    0.72660   0.78141   0.79939   0.85618   0.87819
 Alpha virt. eigenvalues --    0.88044   0.89372   0.90732   0.92547   0.96156
 Alpha virt. eigenvalues --    1.00361   1.01259   1.05540   1.07349   1.08874
 Alpha virt. eigenvalues --    1.12267   1.18195   1.24976   1.28878   1.32035
 Alpha virt. eigenvalues --    1.36024   1.57171   1.59105   1.65944   1.72703
 Alpha virt. eigenvalues --    1.84209   1.92701   1.97857   1.99762   2.04925
 Alpha virt. eigenvalues --    2.11490   2.22077   2.27096   2.32497   3.29412
 Alpha virt. eigenvalues --    3.33148   3.36260   3.38997   3.41033   3.46280
 Alpha virt. eigenvalues --    3.47540   3.55627   3.61033   3.62719   4.43036
 Alpha virt. eigenvalues --    4.47847   4.52177   4.58589   4.80880   4.89810
 Alpha virt. eigenvalues --    4.93257   4.94496   4.95672   4.96609   4.98225
 Alpha virt. eigenvalues --    4.99788   5.01151   5.05595   5.13686   5.15023
 Alpha virt. eigenvalues --    5.32607   5.39334   5.41477   5.48087   5.53986
 Alpha virt. eigenvalues --    5.60989   5.76656   5.88497   6.44977   8.66579
 Alpha virt. eigenvalues --   14.19897  14.22103  14.23960  14.26266  14.28000
 Alpha virt. eigenvalues --   14.33094  14.34854  14.37599  14.48063  14.58673
 Alpha virt. eigenvalues --   17.22043  17.46849  17.78682  49.89003  49.97439
 Alpha virt. eigenvalues --  189.63948
  Beta  occ. eigenvalues --  -88.97978 -19.18168 -19.15058  -8.05303  -6.01862
  Beta  occ. eigenvalues --   -6.01282  -6.00548  -1.10194  -1.03173  -0.68776
  Beta  occ. eigenvalues --   -0.53014  -0.46612  -0.43816  -0.40007  -0.35037
  Beta  occ. eigenvalues --   -0.33375
  Beta virt. eigenvalues --   -0.11277  -0.02931   0.00460   0.02369   0.04653
  Beta virt. eigenvalues --    0.05424   0.07751   0.11324   0.15666   0.16958
  Beta virt. eigenvalues --    0.18130   0.19585   0.21538   0.22952   0.25201
  Beta virt. eigenvalues --    0.26829   0.28135   0.29459   0.31434   0.33059
  Beta virt. eigenvalues --    0.33459   0.33973   0.43066   0.47409   0.61043
  Beta virt. eigenvalues --    0.71283   0.73091   0.78699   0.80944   0.86324
  Beta virt. eigenvalues --    0.88584   0.89077   0.90405   0.91425   0.93956
  Beta virt. eigenvalues --    0.97164   1.01074   1.03517   1.05793   1.07772
  Beta virt. eigenvalues --    1.09399   1.13573   1.18636   1.26492   1.29686
  Beta virt. eigenvalues --    1.32317   1.36320   1.60413   1.61076   1.67519
  Beta virt. eigenvalues --    1.74317   1.85130   1.94359   1.98600   2.02237
  Beta virt. eigenvalues --    2.04987   2.12014   2.22469   2.27768   2.33148
  Beta virt. eigenvalues --    3.30498   3.34783   3.38347   3.40246   3.42306
  Beta virt. eigenvalues --    3.47348   3.49469   3.56427   3.61402   3.63632
  Beta virt. eigenvalues --    4.43815   4.47976   4.53234   4.59189   4.81525
  Beta virt. eigenvalues --    4.90569   4.94355   4.95290   4.96448   4.97479
  Beta virt. eigenvalues --    5.01860   5.02165   5.02926   5.06373   5.14678
  Beta virt. eigenvalues --    5.16393   5.33267   5.39878   5.42351   5.48677
  Beta virt. eigenvalues --    5.54331   5.62075   5.78488   5.88997   6.45386
  Beta virt. eigenvalues --    8.67068  14.21343  14.24420  14.27386  14.27685
  Beta virt. eigenvalues --   14.30185  14.35238  14.36620  14.38330  14.48618
  Beta virt. eigenvalues --   14.60379  17.23705  17.47142  17.78985  49.89305
  Beta virt. eigenvalues --   49.98403 189.64300
          Condensed to atoms (all electrons):
               1          2          3          4
     1  S   15.325580   0.017813   0.122303   0.008371
     2  O    0.017813   8.406787   0.001359   0.194503
     3  O    0.122303   0.001359   8.250647  -0.001595
     4  H    0.008371   0.194503  -0.001595   0.331479
          Atomic-Atomic Spin Densities.
               1          2          3          4
     1  S    0.939656  -0.097569  -0.198952  -0.001014
     2  O   -0.097569   0.147185   0.019418  -0.003105
     3  O   -0.198952   0.019418   0.473041  -0.000816
     4  H   -0.001014  -0.003105  -0.000816   0.004196
 Mulliken charges and spin densities:
               1          2
     1  S    0.525932   0.642120
     2  O   -0.620462   0.065928
     3  O   -0.372713   0.292691
     4  H    0.467242  -0.000739
 Sum of Mulliken charges =  -0.00000   1.00000
 Mulliken charges and spin densities with hydrogens summed into heavy atoms:
               1          2
     1  S    0.525932   0.642120
     2  O   -0.153219   0.065189
     3  O   -0.372713   0.292691
 Electronic spatial extent (au):  <R**2>=            179.8701
 Charge=             -0.0000 electrons
 Dipole moment (field-independent basis, Debye):
    X=              1.2928    Y=              0.0869    Z=              0.4352  Tot=              1.3668
 Quadrupole moment (field-independent basis, Debye-Ang):
   XX=            -25.9401   YY=            -21.2592   ZZ=            -23.8984
   XY=              4.2240   XZ=              0.6804   YZ=              0.6419
 Traceless Quadrupole moment (field-independent basis, Debye-Ang):
   XX=             -2.2409   YY=              2.4400   ZZ=             -0.1992
   XY=              4.2240   XZ=              0.6804   YZ=              0.6419
 Octapole moment (field-independent basis, Debye-Ang**2):
  XXX=              2.7685  YYY=              4.9883  ZZZ=             -0.0108  XYY=              5.2487
  XXY=              2.8718  XXZ=              1.0116  XZZ=             -0.1071  YZZ=              1.1904
  YYZ=              0.7199  XYZ=              0.8851
 Hexadecapole moment (field-independent basis, Debye-Ang**3):
 XXXX=           -142.1225 YYYY=            -53.5721 ZZZZ=            -25.8029 XXXY=             10.4273
 XXXZ=              1.6895 YYYX=              7.2638 YYYZ=              1.0451 ZZZX=              0.3708
 ZZZY=              0.4432 XXYY=            -25.7131 XXZZ=            -27.8845 YYZZ=            -14.4548
 XXYZ=              1.4346 YYXZ=              1.0915 ZZXY=              0.4220
 N-N= 1.107984787829D+02 E-N=-1.525645196598D+03  KE= 5.483022133054D+02
                          Isotropic Fermi Contact Couplings
        Atom                 a.u.       MegaHertz       Gauss      10(-4) cm-1
     1  S(33)              0.05109      17.54900       6.26192       5.85372
     2  O(17)              0.01785     -10.82234      -3.86168      -3.60995
     3  O(17)              0.03531     -21.40772      -7.63881      -7.14085
     4  H(1)              -0.00025      -1.12011      -0.39968      -0.37363
 --------------------------------------------------------
       Center         ----  Spin Dipole Couplings  ----
                      3XX-RR        3YY-RR        3ZZ-RR
 --------------------------------------------------------
     1   Atom       -1.479864     -1.600391      3.080255
     2   Atom       -0.247238     -0.221621      0.468859
     3   Atom       -0.774336     -0.780791      1.555127
     4   Atom       -0.008974      0.018427     -0.009452
 --------------------------------------------------------
                        XY            XZ            YZ
 --------------------------------------------------------
     1   Atom       -0.005559     -0.095662      0.091025
     2   Atom        0.014157      0.000801     -0.098708
     3   Atom       -0.000661      0.038623      0.011891
     4   Atom        0.011505      0.001740      0.003562
 --------------------------------------------------------


 ---------------------------------------------------------------------------------
              Anisotropic Spin Dipole Couplings in Principal Axis System
 ---------------------------------------------------------------------------------

       Atom             a.u.   MegaHertz   Gauss  10(-4) cm-1        Axes

              Baa    -1.6023   -65.692   -23.440   -21.912  0.0307  0.9994 -0.0188
     1 S(33)  Bbb    -1.4818   -60.751   -21.677   -20.264  0.9993 -0.0303  0.0216
              Bcc     3.0840   126.443    45.118    42.177 -0.0210  0.0194  0.9996
 
              Baa    -0.2567    18.572     6.627     6.195  0.8321 -0.5494 -0.0757
     2 O(17)  Bbb    -0.2260    16.356     5.836     5.456  0.5546  0.8239  0.1164
              Bcc     0.4827   -34.927   -12.463   -11.651 -0.0016 -0.1388  0.9903
 
              Baa    -0.7810    56.511    20.164    18.850  0.1415  0.9899 -0.0074
     3 O(17)  Bbb    -0.7749    56.068    20.006    18.702  0.9898 -0.1417 -0.0157
              Bcc     1.5558  -112.579   -40.171   -37.552  0.0166  0.0051  0.9998
 
              Baa    -0.0132    -7.052    -2.516    -2.352  0.9369 -0.3267 -0.1241
     4 H(1)   Bbb    -0.0099    -5.270    -1.881    -1.758  0.0764 -0.1550  0.9850
              Bcc     0.0231    12.322     4.397     4.110  0.3410  0.9323  0.1203
 

 ---------------------------------------------------------------------------------

 1\1\GINC-QCEXNOD57\SP\UB3LYP\6-311+G(3df)\H1O2S1(2)\ROOT\16-Jul-2026\0
 \\#sp b3lyp/6-311+G(3df)\\single point of HOSO\\0,2\S,0,-0.15317,-0.47
 9675,0.012424\O,0,1.318478,0.268099,-0.035462\O,0,-1.178263,0.541268,-
 0.017893\H,0,1.424997,1.221861,0.198065\\Version=ES64L-G16RevA.03\Stat
 e=2-A\HF=-549.2896046\S2=0.755096\S2-1=0.\S2A=0.750018\RMSD=3.243e-09\
 Dipole=0.5069204,0.0512035,0.1720249\Quadrupole=-1.8721839,2.0195845,-
 0.1474006,3.0177391,0.4837748,0.4967979\PG=C01 [X(H1O2S1)]\\@


 SIGN SEEN IN A RESTAURANT-
 WE RESERVE THE RIGHT TO SERVE REFUSE TO ANYONE.
 Job cpu time:       0 days  0 hours  0 minutes 16.6 seconds.
 Elapsed time:       0 days  0 hours  0 minutes  8.7 seconds.
 File lengths (MBytes):  RWF=     16 Int=      0 D2E=      0 Chk=      2 Scr=      1
 Normal termination of Gaussian 16 at Thu Jul 16 14:38:22 2026.
