 Entering Gaussian System, Link 0=g16
 Initial command:
 /soft/g16.a03/g16/l1.exe "/scr/macias/296039.qcexmaster.qcexval.uv.es_vib5_0.20/Gau-16340.inp" -scrdir="/scr/macias/296039.qcexmaster.qcexval.uv.es_vib5_0.20/"
 Entering Link 1 = /soft/g16.a03/g16/l1.exe PID=     16341.
  
 Copyright (c) 1988,1990,1992,1993,1995,1998,2003,2009,2016,
            Gaussian, Inc.  All Rights Reserved.
  
 This is part of the Gaussian(R) 16 program.  It is based on
 the Gaussian(R) 09 system (copyright 2009, Gaussian, Inc.),
 the Gaussian(R) 03 system (copyright 2003, Gaussian, Inc.),
 the Gaussian(R) 98 system (copyright 1998, Gaussian, Inc.),
 the Gaussian(R) 94 system (copyright 1995, Gaussian, Inc.),
 the Gaussian 92(TM) system (copyright 1992, Gaussian, Inc.),
 the Gaussian 90(TM) system (copyright 1990, Gaussian, Inc.),
 the Gaussian 88(TM) system (copyright 1988, Gaussian, Inc.),
 the Gaussian 86(TM) system (copyright 1986, Carnegie Mellon
 University), and the Gaussian 82(TM) system (copyright 1983,
 Carnegie Mellon University). Gaussian is a federally registered
 trademark of Gaussian, Inc.
  
 This software contains proprietary and confidential information,
 including trade secrets, belonging to Gaussian, Inc.
  
 This software is provided under written license and may be
 used, copied, transmitted, or stored only in accord with that
 written license.
  
 The following legend is applicable only to US Government
 contracts under FAR:
  
                    RESTRICTED RIGHTS LEGEND
  
 Use, reproduction and disclosure by the US Government is
 subject to restrictions as set forth in subparagraphs (a)
 and (c) of the Commercial Computer Software - Restricted
 Rights clause in FAR 52.227-19.
  
 Gaussian, Inc.
 340 Quinnipiac St., Bldg. 40, Wallingford CT 06492
  
  
 ---------------------------------------------------------------
 Warning -- This program may not be used in any manner that
 competes with the business of Gaussian, Inc. or will provide
 assistance to any competitor of Gaussian, Inc.  The licensee
 of this program is prohibited from giving any competitor of
 Gaussian, Inc. access to this program.  By using this program,
 the user acknowledges that Gaussian, Inc. is engaged in the
 business of creating and licensing software in the field of
 computational chemistry and represents and warrants to the
 licensee that it is not a competitor of Gaussian, Inc. and that
 it will not use this program in any manner prohibited above.
 ---------------------------------------------------------------
  

 Cite this work as:
 Gaussian 16, Revision A.03,
 M. J. Frisch, G. W. Trucks, H. B. Schlegel, G. E. Scuseria, 
 M. A. Robb, J. R. Cheeseman, G. Scalmani, V. Barone, 
 G. A. Petersson, H. Nakatsuji, X. Li, M. Caricato, A. V. Marenich, 
 J. Bloino, B. G. Janesko, R. Gomperts, B. Mennucci, H. P. Hratchian, 
 J. V. Ortiz, A. F. Izmaylov, J. L. Sonnenberg, D. Williams-Young, 
 F. Ding, F. Lipparini, F. Egidi, J. Goings, B. Peng, A. Petrone, 
 T. Henderson, D. Ranasinghe, V. G. Zakrzewski, J. Gao, N. Rega, 
 G. Zheng, W. Liang, M. Hada, M. Ehara, K. Toyota, R. Fukuda, 
 J. Hasegawa, M. Ishida, T. Nakajima, Y. Honda, O. Kitao, H. Nakai, 
 T. Vreven, K. Throssell, J. A. Montgomery, Jr., J. E. Peralta, 
 F. Ogliaro, M. J. Bearpark, J. J. Heyd, E. N. Brothers, K. N. Kudin, 
 V. N. Staroverov, T. A. Keith, R. Kobayashi, J. Normand, 
 K. Raghavachari, A. P. Rendell, J. C. Burant, S. S. Iyengar, 
 J. Tomasi, M. Cossi, J. M. Millam, M. Klene, C. Adamo, R. Cammi, 
 J. W. Ochterski, R. L. Martin, K. Morokuma, O. Farkas, 
 J. B. Foresman, and D. J. Fox, Gaussian, Inc., Wallingford CT, 2016.
 
 ******************************************
 Gaussian 16:  ES64L-G16RevA.03 25-Dec-2016
                16-Jul-2026 
 ******************************************
 %chk=opt_freq.chk
 %nproc=2
 Will use up to    2 processors via shared memory.
 %mem=2GB
 ----------------------
 #sp b3lyp/6-311+G(3df)
 ----------------------
 1/38=1,172=1/1;
 2/12=2,17=6,18=5,40=1/2;
 3/5=4,6=6,7=16,11=2,25=1,30=1,74=-5/1,2,3;
 4//1;
 5/5=2,38=5/2;
 6/7=2,8=2,9=2,10=2,28=1/1;
 99/5=1,9=1/99;
 --------------------
 single point of HOSO
 --------------------
 Symbolic Z-matrix:
 Charge =  0 Multiplicity = 2
 S                    -0.17317  -0.43968   0.01442 
 O                     1.33848   0.2481   -0.04346 
 O                    -1.13426   0.48527  -0.01589 
 H                     1.067     1.15386   0.25007 
 
                          Input orientation:                          
 ---------------------------------------------------------------------
 Center     Atomic      Atomic             Coordinates (Angstroms)
 Number     Number       Type             X           Y           Z
 ---------------------------------------------------------------------
      1         16           0       -0.173170   -0.439675    0.014424
      2          8           0        1.338478    0.248099   -0.043462
      3          8           0       -1.134263    0.485268   -0.015893
      4          1           0        1.066997    1.153861    0.250065
 ---------------------------------------------------------------------
                    Distance matrix (angstroms):
                    1          2          3          4
     1  S    0.000000
     2  O    1.661765   0.000000
     3  O    1.334218   2.484242   0.000000
     4  H    2.032953   0.990083   2.315879   0.000000
 Stoichiometry    HO2S(2)
 Framework group  C1[X(HO2S)]
 Deg. of freedom     6
 Full point group                 C1      NOp   1
 Largest Abelian subgroup         C1      NOp   1
 Largest concise Abelian subgroup C1      NOp   1
                         Standard orientation:                         
 ---------------------------------------------------------------------
 Center     Atomic      Atomic             Coordinates (Angstroms)
 Number     Number       Type             X           Y           Z
 ---------------------------------------------------------------------
      1         16           0       -0.186826   -0.432702    0.016327
      2          8           0        1.348835    0.199770   -0.040131
      3          8           0       -1.113828    0.526063   -0.023364
      4          1           0        1.109153    1.116572    0.246734
 ---------------------------------------------------------------------
 Rotational constants (GHZ):          40.9180535           9.8288623           7.9489373
 Standard basis: 6-311+G(3df) (5D, 7F)
 There are   146 symmetry adapted cartesian basis functions of A   symmetry.
 There are   128 symmetry adapted basis functions of A   symmetry.
   128 basis functions,   193 primitive gaussians,   146 cartesian basis functions
    17 alpha electrons       16 beta electrons
       nuclear repulsion energy       115.4294805747 Hartrees.
 NAtoms=    4 NActive=    4 NUniq=    4 SFac= 1.00D+00 NAtFMM=   60 NAOKFM=F Big=F
 Integral buffers will be    131072 words long.
 Raffenetti 2 integral format.
 Two-electron integral symmetry is turned on.
 One-electron integrals computed using PRISM.
 NBasis=   128 RedAO= T EigKep=  6.75D-04  NBF=   128
 NBsUse=   128 1.00D-06 EigRej= -1.00D+00 NBFU=   128
 ExpMin= 4.05D-02 ExpMax= 9.34D+04 ExpMxC= 3.17D+03 IAcc=3 IRadAn=         5 AccDes= 0.00D+00
 Harris functional with IExCor=  402 and IRadAn=       5 diagonalized for initial guess.
 HarFok:  IExCor=  402 AccDes= 0.00D+00 IRadAn=         5 IDoV= 1 UseB2=F ITyADJ=14
 ICtDFT=  3500011 ScaDFX=  1.000000  1.000000  1.000000  1.000000
 FoFCou: FMM=F IPFlag=           0 FMFlag=      100000 FMFlg1=           0
         NFxFlg=           0 DoJE=T BraDBF=F KetDBF=T FulRan=T
         wScrn=  0.000000 ICntrl=       500 IOpCl=  0 I1Cent=   200000004 NGrid=           0
         NMat0=    1 NMatS0=      1 NMatT0=    0 NMatD0=    1 NMtDS0=    0 NMtDT0=    0
 Petite list used in FoFCou.
 Initial guess <Sx>= 0.0000 <Sy>= 0.0000 <Sz>= 0.5000 <S**2>= 0.7500 S= 0.5000
 Keep R1 and R2 ints in memory in canonical form, NReq=70152901.
 Requested convergence on RMS density matrix=1.00D-08 within 128 cycles.
 Requested convergence on MAX density matrix=1.00D-06.
 Requested convergence on             energy=1.00D-06.
 No special actions if energy rises.
 SCF Done:  E(UB3LYP) =  -549.263951089     A.U. after   13 cycles
            NFock= 13  Conv=0.58D-08     -V/T= 2.0008
 <Sx>= 0.0000 <Sy>= 0.0000 <Sz>= 0.5000 <S**2>= 0.7548 S= 0.5024
 <L.S>= 0.000000000000E+00
 Annihilation of the first spin contaminant:
 S**2 before annihilation     0.7548,   after     0.7500

 **********************************************************************

            Population analysis using the SCF density.

 **********************************************************************

 Orbital symmetries:
 Alpha Orbitals:
       Occupied  (A) (A) (A) (A) (A) (A) (A) (A) (A) (A) (A) (A)
                 (A) (A) (A) (A) (A)
       Virtual   (A) (A) (A) (A) (A) (A) (A) (A) (A) (A) (A) (A)
                 (A) (A) (A) (A) (A) (A) (A) (A) (A) (A) (A) (A)
                 (A) (A) (A) (A) (A) (A) (A) (A) (A) (A) (A) (A)
                 (A) (A) (A) (A) (A) (A) (A) (A) (A) (A) (A) (A)
                 (A) (A) (A) (A) (A) (A) (A) (A) (A) (A) (A) (A)
                 (A) (A) (A) (A) (A) (A) (A) (A) (A) (A) (A) (A)
                 (A) (A) (A) (A) (A) (A) (A) (A) (A) (A) (A) (A)
                 (A) (A) (A) (A) (A) (A) (A) (A) (A) (A) (A) (A)
                 (A) (A) (A) (A) (A) (A) (A) (A) (A) (A) (A) (A)
                 (A) (A) (A)
 Beta  Orbitals:
       Occupied  (A) (A) (A) (A) (A) (A) (A) (A) (A) (A) (A) (A)
                 (A) (A) (A) (A)
       Virtual   (A) (A) (A) (A) (A) (A) (A) (A) (A) (A) (A) (A)
                 (A) (A) (A) (A) (A) (A) (A) (A) (A) (A) (A) (A)
                 (A) (A) (A) (A) (A) (A) (A) (A) (A) (A) (A) (A)
                 (A) (A) (A) (A) (A) (A) (A) (A) (A) (A) (A) (A)
                 (A) (A) (A) (A) (A) (A) (A) (A) (A) (A) (A) (A)
                 (A) (A) (A) (A) (A) (A) (A) (A) (A) (A) (A) (A)
                 (A) (A) (A) (A) (A) (A) (A) (A) (A) (A) (A) (A)
                 (A) (A) (A) (A) (A) (A) (A) (A) (A) (A) (A) (A)
                 (A) (A) (A) (A) (A) (A) (A) (A) (A) (A) (A) (A)
                 (A) (A) (A) (A)
 The electronic state is 2-A.
 Alpha  occ. eigenvalues --  -88.96864 -19.18793 -19.16438  -8.04686  -6.01010
 Alpha  occ. eigenvalues --   -6.00812  -6.00472  -1.17250  -1.06336  -0.67757
 Alpha  occ. eigenvalues --   -0.53677  -0.51161  -0.50469  -0.44297  -0.38941
 Alpha  occ. eigenvalues --   -0.35393  -0.21643
 Alpha virt. eigenvalues --   -0.01693   0.00562   0.02287   0.03864   0.04653
 Alpha virt. eigenvalues --    0.08630   0.12066   0.14534   0.16579   0.17246
 Alpha virt. eigenvalues --    0.18572   0.20072   0.23679   0.24622   0.25067
 Alpha virt. eigenvalues --    0.27920   0.29116   0.30071   0.32377   0.33453
 Alpha virt. eigenvalues --    0.33975   0.43871   0.48895   0.63396   0.71605
 Alpha virt. eigenvalues --    0.73205   0.78646   0.79370   0.84822   0.85747
 Alpha virt. eigenvalues --    0.88166   0.90095   0.91066   0.94774   0.97425
 Alpha virt. eigenvalues --    1.00158   1.01618   1.01924   1.06740   1.12308
 Alpha virt. eigenvalues --    1.16339   1.22693   1.27311   1.29221   1.32073
 Alpha virt. eigenvalues --    1.38293   1.57268   1.59243   1.71434   1.72457
 Alpha virt. eigenvalues --    1.83342   1.91459   1.96575   2.00304   2.01378
 Alpha virt. eigenvalues --    2.07473   2.24081   2.39239   2.43876   3.28736
 Alpha virt. eigenvalues --    3.32400   3.35098   3.40164   3.41891   3.48754
 Alpha virt. eigenvalues --    3.50618   3.54972   3.63204   3.71013   4.43737
 Alpha virt. eigenvalues --    4.55908   4.61438   4.63443   4.79742   4.89795
 Alpha virt. eigenvalues --    4.92706   4.93782   4.94712   4.96032   4.97617
 Alpha virt. eigenvalues --    5.00985   5.01740   5.07262   5.16015   5.22089
 Alpha virt. eigenvalues --    5.32025   5.35079   5.42595   5.47218   5.64654
 Alpha virt. eigenvalues --    5.83119   5.84798   5.97074   6.39117   8.80740
 Alpha virt. eigenvalues --   14.19535  14.22327  14.23177  14.26943  14.29350
 Alpha virt. eigenvalues --   14.31221  14.37229  14.38122  14.52115  14.60789
 Alpha virt. eigenvalues --   17.25319  17.50707  18.10080  49.89287  50.05661
 Alpha virt. eigenvalues --  189.87143
  Beta  occ. eigenvalues --  -88.96469 -19.18492 -19.15576  -8.04319  -6.00792
  Beta  occ. eigenvalues --   -6.00285  -5.99532  -1.15921  -1.05562  -0.65484
  Beta  occ. eigenvalues --   -0.52671  -0.50419  -0.46757  -0.42922  -0.36538
  Beta  occ. eigenvalues --   -0.34143
  Beta virt. eigenvalues --   -0.09806  -0.01251   0.00922   0.02792   0.04403
  Beta virt. eigenvalues --    0.05182   0.08938   0.12341   0.14814   0.17000
  Beta virt. eigenvalues --    0.17478   0.18963   0.20336   0.23910   0.24817
  Beta virt. eigenvalues --    0.26270   0.28381   0.29650   0.31228   0.33535
  Beta virt. eigenvalues --    0.33876   0.35412   0.44390   0.49073   0.63936
  Beta virt. eigenvalues --    0.72336   0.73583   0.79671   0.79882   0.85703
  Beta virt. eigenvalues --    0.86137   0.89878   0.90951   0.92063   0.95397
  Beta virt. eigenvalues --    0.98219   1.01239   1.02216   1.03769   1.06988
  Beta virt. eigenvalues --    1.13499   1.17226   1.23145   1.27684   1.30117
  Beta virt. eigenvalues --    1.33108   1.38580   1.61013   1.61363   1.72967
  Beta virt. eigenvalues --    1.74220   1.84150   1.92988   1.97438   2.00529
  Beta virt. eigenvalues --    2.04106   2.07867   2.24545   2.39989   2.44505
  Beta virt. eigenvalues --    3.29836   3.34032   3.37114   3.40967   3.42729
  Beta virt. eigenvalues --    3.49625   3.52738   3.55516   3.63554   3.71863
  Beta virt. eigenvalues --    4.44545   4.56499   4.61563   4.64585   4.80541
  Beta virt. eigenvalues --    4.90572   4.93667   4.94569   4.95465   4.97529
  Beta virt. eigenvalues --    4.99295   5.01955   5.04920   5.07751   5.17061
  Beta virt. eigenvalues --    5.23304   5.32791   5.35669   5.43430   5.48001
  Beta virt. eigenvalues --    5.64938   5.83820   5.86449   5.97632   6.39500
  Beta virt. eigenvalues --    8.81245  14.20996  14.24798  14.26135  14.28198
  Beta virt. eigenvalues --   14.30566  14.32368  14.37990  14.40946  14.52615
  Beta virt. eigenvalues --   14.62217  17.27022  17.51006  18.10410  49.89592
  Beta virt. eigenvalues --   50.06502 189.87501
          Condensed to atoms (all electrons):
               1          2          3          4
     1  S   15.509856  -0.029914  -0.003139   0.010154
     2  O   -0.029914   8.461726   0.010176   0.198439
     3  O   -0.003139   0.010176   8.331890  -0.000968
     4  H    0.010154   0.198439  -0.000968   0.327034
          Atomic-Atomic Spin Densities.
               1          2          3          4
     1  S    1.070570  -0.111973  -0.245974  -0.002426
     2  O   -0.111973   0.155021   0.022487  -0.005006
     3  O   -0.245974   0.022487   0.452403  -0.000197
     4  H   -0.002426  -0.005006  -0.000197   0.008185
 Mulliken charges and spin densities:
               1          2
     1  S    0.513043   0.710197
     2  O   -0.640427   0.060529
     3  O   -0.337958   0.228718
     4  H    0.465342   0.000556
 Sum of Mulliken charges =  -0.00000   1.00000
 Mulliken charges and spin densities with hydrogens summed into heavy atoms:
               1          2
     1  S    0.513043   0.710197
     2  O   -0.175085   0.061085
     3  O   -0.337958   0.228718
 Electronic spatial extent (au):  <R**2>=            172.0319
 Charge=             -0.0000 electrons
 Dipole moment (field-independent basis, Debye):
    X=              0.3739    Y=              0.2874    Z=              0.4614  Tot=              0.6597
 Quadrupole moment (field-independent basis, Debye-Ang):
   XX=            -26.8730   YY=            -21.7092   ZZ=            -23.6935
   XY=              2.7906   XZ=              0.5094   YZ=              0.7625
 Traceless Quadrupole moment (field-independent basis, Debye-Ang):
   XX=             -2.7811   YY=              2.3827   ZZ=              0.3984
   XY=              2.7906   XZ=              0.5094   YZ=              0.7625
 Octapole moment (field-independent basis, Debye-Ang**2):
  XXX=             -2.0365  YYY=              4.9781  ZZZ=             -0.1257  XYY=              3.5719
  XXY=              0.0604  XXZ=              0.5799  XZZ=             -0.5175  YZZ=              1.4611
  YYZ=              0.8237  XYZ=              0.8268
 Hexadecapole moment (field-independent basis, Debye-Ang**3):
 XXXX=           -140.2008 YYYY=            -49.9948 ZZZZ=            -25.8931 XXXY=              3.9710
 XXXZ=              0.6047 YYYX=              4.0006 YYYZ=              1.0767 ZZZX=              0.2693
 ZZZY=              0.5476 XXYY=            -27.6380 XXZZ=            -26.7946 YYZZ=            -13.6654
 XXYZ=              1.1194 YYXZ=              0.8704 ZZXY=              0.1040
 N-N= 1.154294805747D+02 E-N=-1.535120116987D+03  KE= 5.488320113858D+02
                          Isotropic Fermi Contact Couplings
        Atom                 a.u.       MegaHertz       Gauss      10(-4) cm-1
     1  S(33)              0.05573      19.14317       6.83076       6.38547
     2  O(17)              0.01623      -9.84136      -3.51164      -3.28272
     3  O(17)              0.03264     -19.78556      -7.05998      -6.59975
     4  H(1)               0.00025       1.11936       0.39942       0.37338
 --------------------------------------------------------
       Center         ----  Spin Dipole Couplings  ----
                      3XX-RR        3YY-RR        3ZZ-RR
 --------------------------------------------------------
     1   Atom       -1.491780     -1.620005      3.111786
     2   Atom       -0.250875     -0.230861      0.481736
     3   Atom       -0.682013     -0.685304      1.367317
     4   Atom       -0.006507      0.019662     -0.013155
 --------------------------------------------------------
                        XY            XZ            YZ
 --------------------------------------------------------
     1   Atom       -0.012403      0.005419      0.254190
     2   Atom        0.009652      0.012820     -0.105568
     3   Atom       -0.008714      0.068796      0.067938
     4   Atom        0.001861      0.000393      0.004688
 --------------------------------------------------------


 ---------------------------------------------------------------------------------
              Anisotropic Spin Dipole Couplings in Principal Axis System
 ---------------------------------------------------------------------------------

       Atom             a.u.   MegaHertz   Gauss  10(-4) cm-1        Axes

              Baa    -1.6347   -67.023   -23.915   -22.356  0.0883  0.9947 -0.0534
     1 S(33)  Bbb    -1.4907   -61.116   -21.808   -20.386  0.9961 -0.0882  0.0037
              Bcc     3.1254   128.139    45.723    42.742  0.0010  0.0535  0.9986
 
              Baa    -0.2603    18.832     6.720     6.282  0.7775 -0.6206 -0.1017
     2 O(17)  Bbb    -0.2370    17.146     6.118     5.719  0.6287  0.7709  0.1020
              Bcc     0.4972   -35.978   -12.838   -12.001  0.0151 -0.1433  0.9896
 
              Baa    -0.6970    50.436    17.997    16.824  0.6528  0.7561 -0.0466
     3 O(17)  Bbb    -0.6748    48.830    17.424    16.288  0.7568 -0.6537 -0.0037
              Bcc     1.3718   -99.266   -35.421   -33.112  0.0333  0.0328  0.9989
 
              Baa    -0.0138    -7.370    -2.630    -2.458 -0.0181 -0.1377  0.9903
     4 H(1)   Bbb    -0.0066    -3.542    -1.264    -1.181  0.9974 -0.0720  0.0083
              Bcc     0.0205    10.912     3.894     3.640  0.0702  0.9879  0.1386
 

 ---------------------------------------------------------------------------------

 1\1\GINC-QCEXNOD57\SP\UB3LYP\6-311+G(3df)\H1O2S1(2)\ROOT\16-Jul-2026\0
 \\#sp b3lyp/6-311+G(3df)\\single point of HOSO\\0,2\S,0,-0.17317,-0.43
 9675,0.014424\O,0,1.338478,0.248099,-0.043462\O,0,-1.134263,0.485268,-
 0.015893\H,0,1.066997,1.153861,0.250065\\Version=ES64L-G16RevA.03\Stat
 e=2-A\HF=-549.2639511\S2=0.754781\S2-1=0.\S2A=0.750015\RMSD=5.824e-09\
 Dipole=0.1436059,0.1171592,0.1817031\Quadrupole=-2.2094212,1.9087426,0
 .3006786,1.9309117,0.3794929,0.5829452\PG=C01 [X(H1O2S1)]\\@


 THE WORLD IS MADE UP OF THE WILLS, THE WON'TS, AND THE CANT'S:
 THE WILLS DO EVERYTHING,
 THE WON'TS DO NOTHING,
 THE CAN'TS CAN'T DO ANYTHING.

                               -- FROM WALT DISNEY'S "BLACK HOLE"
 Job cpu time:       0 days  0 hours  0 minutes 15.4 seconds.
 Elapsed time:       0 days  0 hours  0 minutes  8.0 seconds.
 File lengths (MBytes):  RWF=     16 Int=      0 D2E=      0 Chk=      2 Scr=      1
 Normal termination of Gaussian 16 at Thu Jul 16 14:38:31 2026.
