 Entering Gaussian System, Link 0=g16
 Initial command:
 /soft/g16.a03/g16/l1.exe "/scr/macias/296026.qcexmaster.qcexval.uv.es_vib4_-0.30/Gau-15731.inp" -scrdir="/scr/macias/296026.qcexmaster.qcexval.uv.es_vib4_-0.30/"
 Entering Link 1 = /soft/g16.a03/g16/l1.exe PID=     15734.
  
 Copyright (c) 1988,1990,1992,1993,1995,1998,2003,2009,2016,
            Gaussian, Inc.  All Rights Reserved.
  
 This is part of the Gaussian(R) 16 program.  It is based on
 the Gaussian(R) 09 system (copyright 2009, Gaussian, Inc.),
 the Gaussian(R) 03 system (copyright 2003, Gaussian, Inc.),
 the Gaussian(R) 98 system (copyright 1998, Gaussian, Inc.),
 the Gaussian(R) 94 system (copyright 1995, Gaussian, Inc.),
 the Gaussian 92(TM) system (copyright 1992, Gaussian, Inc.),
 the Gaussian 90(TM) system (copyright 1990, Gaussian, Inc.),
 the Gaussian 88(TM) system (copyright 1988, Gaussian, Inc.),
 the Gaussian 86(TM) system (copyright 1986, Carnegie Mellon
 University), and the Gaussian 82(TM) system (copyright 1983,
 Carnegie Mellon University). Gaussian is a federally registered
 trademark of Gaussian, Inc.
  
 This software contains proprietary and confidential information,
 including trade secrets, belonging to Gaussian, Inc.
  
 This software is provided under written license and may be
 used, copied, transmitted, or stored only in accord with that
 written license.
  
 The following legend is applicable only to US Government
 contracts under FAR:
  
                    RESTRICTED RIGHTS LEGEND
  
 Use, reproduction and disclosure by the US Government is
 subject to restrictions as set forth in subparagraphs (a)
 and (c) of the Commercial Computer Software - Restricted
 Rights clause in FAR 52.227-19.
  
 Gaussian, Inc.
 340 Quinnipiac St., Bldg. 40, Wallingford CT 06492
  
  
 ---------------------------------------------------------------
 Warning -- This program may not be used in any manner that
 competes with the business of Gaussian, Inc. or will provide
 assistance to any competitor of Gaussian, Inc.  The licensee
 of this program is prohibited from giving any competitor of
 Gaussian, Inc. access to this program.  By using this program,
 the user acknowledges that Gaussian, Inc. is engaged in the
 business of creating and licensing software in the field of
 computational chemistry and represents and warrants to the
 licensee that it is not a competitor of Gaussian, Inc. and that
 it will not use this program in any manner prohibited above.
 ---------------------------------------------------------------
  

 Cite this work as:
 Gaussian 16, Revision A.03,
 M. J. Frisch, G. W. Trucks, H. B. Schlegel, G. E. Scuseria, 
 M. A. Robb, J. R. Cheeseman, G. Scalmani, V. Barone, 
 G. A. Petersson, H. Nakatsuji, X. Li, M. Caricato, A. V. Marenich, 
 J. Bloino, B. G. Janesko, R. Gomperts, B. Mennucci, H. P. Hratchian, 
 J. V. Ortiz, A. F. Izmaylov, J. L. Sonnenberg, D. Williams-Young, 
 F. Ding, F. Lipparini, F. Egidi, J. Goings, B. Peng, A. Petrone, 
 T. Henderson, D. Ranasinghe, V. G. Zakrzewski, J. Gao, N. Rega, 
 G. Zheng, W. Liang, M. Hada, M. Ehara, K. Toyota, R. Fukuda, 
 J. Hasegawa, M. Ishida, T. Nakajima, Y. Honda, O. Kitao, H. Nakai, 
 T. Vreven, K. Throssell, J. A. Montgomery, Jr., J. E. Peralta, 
 F. Ogliaro, M. J. Bearpark, J. J. Heyd, E. N. Brothers, K. N. Kudin, 
 V. N. Staroverov, T. A. Keith, R. Kobayashi, J. Normand, 
 K. Raghavachari, A. P. Rendell, J. C. Burant, S. S. Iyengar, 
 J. Tomasi, M. Cossi, J. M. Millam, M. Klene, C. Adamo, R. Cammi, 
 J. W. Ochterski, R. L. Martin, K. Morokuma, O. Farkas, 
 J. B. Foresman, and D. J. Fox, Gaussian, Inc., Wallingford CT, 2016.
 
 ******************************************
 Gaussian 16:  ES64L-G16RevA.03 25-Dec-2016
                16-Jul-2026 
 ******************************************
 %chk=opt_freq.chk
 %nproc=2
 Will use up to    2 processors via shared memory.
 %mem=2GB
 ----------------------
 #sp b3lyp/6-311+G(3df)
 ----------------------
 1/38=1,172=1/1;
 2/12=2,17=6,18=5,40=1/2;
 3/5=4,6=6,7=16,11=2,25=1,30=1,74=-5/1,2,3;
 4//1;
 5/5=2,38=5/2;
 6/7=2,8=2,9=2,10=2,28=1/1;
 99/5=1,9=1/99;
 --------------------
 single point of HOSO
 --------------------
 Symbolic Z-matrix:
 Charge =  0 Multiplicity = 2
 S                    -0.15817  -0.48068   0.01142 
 O                     1.31348   0.2741   -0.03346 
 O                    -1.16926   0.53627  -0.01789 
 H                     1.521     1.24086   0.18307 
 
                          Input orientation:                          
 ---------------------------------------------------------------------
 Center     Atomic      Atomic             Coordinates (Angstroms)
 Number     Number       Type             X           Y           Z
 ---------------------------------------------------------------------
      1         16           0       -0.158170   -0.480675    0.011424
      2          8           0        1.313478    0.274099   -0.033462
      3          8           0       -1.169263    0.536268   -0.017893
      4          1           0        1.520997    1.240861    0.183065
 ---------------------------------------------------------------------
                    Distance matrix (angstroms):
                    1          2          3          4
     1  S    0.000000
     2  O    1.654523   0.000000
     3  O    1.434344   2.496593   0.000000
     4  H    2.410964   1.012214   2.788249   0.000000
 Stoichiometry    HO2S(2)
 Framework group  C1[X(HO2S)]
 Deg. of freedom     6
 Full point group                 C1      NOp   1
 Largest Abelian subgroup         C1      NOp   1
 Largest concise Abelian subgroup C1      NOp   1
                         Standard orientation:                         
 ---------------------------------------------------------------------
 Center     Atomic      Atomic             Coordinates (Angstroms)
 Number     Number       Type             X           Y           Z
 ---------------------------------------------------------------------
      1         16           0       -0.186339   -0.472986    0.012401
      2          8           0        1.321033    0.207488   -0.034858
      3          8           0       -1.145487    0.593195   -0.012787
      4          1           0        1.577051    1.162310    0.182733
 ---------------------------------------------------------------------
 Rotational constants (GHZ):          34.1951541           9.6030649           7.5098026
 Standard basis: 6-311+G(3df) (5D, 7F)
 There are   146 symmetry adapted cartesian basis functions of A   symmetry.
 There are   128 symmetry adapted basis functions of A   symmetry.
   128 basis functions,   193 primitive gaussians,   146 cartesian basis functions
    17 alpha electrons       16 beta electrons
       nuclear repulsion energy       110.9404392007 Hartrees.
 NAtoms=    4 NActive=    4 NUniq=    4 SFac= 1.00D+00 NAtFMM=   60 NAOKFM=F Big=F
 Integral buffers will be    131072 words long.
 Raffenetti 2 integral format.
 Two-electron integral symmetry is turned on.
 One-electron integrals computed using PRISM.
 NBasis=   128 RedAO= T EigKep=  8.79D-04  NBF=   128
 NBsUse=   128 1.00D-06 EigRej= -1.00D+00 NBFU=   128
 ExpMin= 4.05D-02 ExpMax= 9.34D+04 ExpMxC= 3.17D+03 IAcc=3 IRadAn=         5 AccDes= 0.00D+00
 Harris functional with IExCor=  402 and IRadAn=       5 diagonalized for initial guess.
 HarFok:  IExCor=  402 AccDes= 0.00D+00 IRadAn=         5 IDoV= 1 UseB2=F ITyADJ=14
 ICtDFT=  3500011 ScaDFX=  1.000000  1.000000  1.000000  1.000000
 FoFCou: FMM=F IPFlag=           0 FMFlag=      100000 FMFlg1=           0
         NFxFlg=           0 DoJE=T BraDBF=F KetDBF=T FulRan=T
         wScrn=  0.000000 ICntrl=       500 IOpCl=  0 I1Cent=   200000004 NGrid=           0
         NMat0=    1 NMatS0=      1 NMatT0=    0 NMatD0=    1 NMtDS0=    0 NMtDT0=    0
 Petite list used in FoFCou.
 Initial guess <Sx>= 0.0000 <Sy>= 0.0000 <Sz>= 0.5000 <S**2>= 0.7500 S= 0.5000
 Keep R1 and R2 ints in memory in canonical form, NReq=70152731.
 Requested convergence on RMS density matrix=1.00D-08 within 128 cycles.
 Requested convergence on MAX density matrix=1.00D-06.
 Requested convergence on             energy=1.00D-06.
 No special actions if energy rises.
 SCF Done:  E(UB3LYP) =  -549.283918046     A.U. after   14 cycles
            NFock= 14  Conv=0.33D-08     -V/T= 2.0018
 <Sx>= 0.0000 <Sy>= 0.0000 <Sz>= 0.5000 <S**2>= 0.7550 S= 0.5025
 <L.S>= 0.000000000000E+00
 Annihilation of the first spin contaminant:
 S**2 before annihilation     0.7550,   after     0.7500

 **********************************************************************

            Population analysis using the SCF density.

 **********************************************************************

 Orbital symmetries:
 Alpha Orbitals:
       Occupied  (A) (A) (A) (A) (A) (A) (A) (A) (A) (A) (A) (A)
                 (A) (A) (A) (A) (A)
       Virtual   (A) (A) (A) (A) (A) (A) (A) (A) (A) (A) (A) (A)
                 (A) (A) (A) (A) (A) (A) (A) (A) (A) (A) (A) (A)
                 (A) (A) (A) (A) (A) (A) (A) (A) (A) (A) (A) (A)
                 (A) (A) (A) (A) (A) (A) (A) (A) (A) (A) (A) (A)
                 (A) (A) (A) (A) (A) (A) (A) (A) (A) (A) (A) (A)
                 (A) (A) (A) (A) (A) (A) (A) (A) (A) (A) (A) (A)
                 (A) (A) (A) (A) (A) (A) (A) (A) (A) (A) (A) (A)
                 (A) (A) (A) (A) (A) (A) (A) (A) (A) (A) (A) (A)
                 (A) (A) (A) (A) (A) (A) (A) (A) (A) (A) (A) (A)
                 (A) (A) (A)
 Beta  Orbitals:
       Occupied  (A) (A) (A) (A) (A) (A) (A) (A) (A) (A) (A) (A)
                 (A) (A) (A) (A)
       Virtual   (A) (A) (A) (A) (A) (A) (A) (A) (A) (A) (A) (A)
                 (A) (A) (A) (A) (A) (A) (A) (A) (A) (A) (A) (A)
                 (A) (A) (A) (A) (A) (A) (A) (A) (A) (A) (A) (A)
                 (A) (A) (A) (A) (A) (A) (A) (A) (A) (A) (A) (A)
                 (A) (A) (A) (A) (A) (A) (A) (A) (A) (A) (A) (A)
                 (A) (A) (A) (A) (A) (A) (A) (A) (A) (A) (A) (A)
                 (A) (A) (A) (A) (A) (A) (A) (A) (A) (A) (A) (A)
                 (A) (A) (A) (A) (A) (A) (A) (A) (A) (A) (A) (A)
                 (A) (A) (A) (A) (A) (A) (A) (A) (A) (A) (A) (A)
                 (A) (A) (A) (A)
 The electronic state is 2-A.
 Alpha  occ. eigenvalues --  -88.98336 -19.18039 -19.15884  -8.05625  -6.02047
 Alpha  occ. eigenvalues --   -6.01765  -6.01428  -1.11550  -1.03679  -0.70479
 Alpha  occ. eigenvalues --   -0.54097  -0.47772  -0.46925  -0.40949  -0.37889
 Alpha  occ. eigenvalues --   -0.34244  -0.22770
 Alpha virt. eigenvalues --   -0.04094   0.00296   0.02068   0.04279   0.04899
 Alpha virt. eigenvalues --    0.07438   0.10661   0.15595   0.16608   0.18234
 Alpha virt. eigenvalues --    0.19035   0.21737   0.22603   0.25178   0.26107
 Alpha virt. eigenvalues --    0.27594   0.29005   0.30437   0.31654   0.33060
 Alpha virt. eigenvalues --    0.34152   0.42136   0.46095   0.61099   0.71181
 Alpha virt. eigenvalues --    0.72760   0.77667   0.80315   0.85610   0.87576
 Alpha virt. eigenvalues --    0.87822   0.89278   0.90359   0.92598   0.96061
 Alpha virt. eigenvalues --    1.00312   1.01353   1.05879   1.08624   1.10601
 Alpha virt. eigenvalues --    1.12479   1.18354   1.25705   1.28771   1.32317
 Alpha virt. eigenvalues --    1.36248   1.57200   1.59604   1.66503   1.72965
 Alpha virt. eigenvalues --    1.84618   1.92657   1.98243   1.99984   2.04136
 Alpha virt. eigenvalues --    2.11480   2.22608   2.29178   2.33576   3.30007
 Alpha virt. eigenvalues --    3.33409   3.36442   3.39180   3.41088   3.46261
 Alpha virt. eigenvalues --    3.47697   3.55984   3.60699   3.63389   4.43204
 Alpha virt. eigenvalues --    4.49398   4.53245   4.58721   4.81390   4.90601
 Alpha virt. eigenvalues --    4.93704   4.94740   4.96075   4.97014   4.98796
 Alpha virt. eigenvalues --    4.99854   5.01041   5.05229   5.13865   5.15454
 Alpha virt. eigenvalues --    5.31761   5.38798   5.41411   5.49017   5.50433
 Alpha virt. eigenvalues --    5.63796   5.78061   5.88671   6.44693   8.68130
 Alpha virt. eigenvalues --   14.20346  14.22277  14.24247  14.26417  14.28061
 Alpha virt. eigenvalues --   14.33652  14.34594  14.38165  14.48515  14.59071
 Alpha virt. eigenvalues --   17.22234  17.47340  17.81799  49.89572  49.98181
 Alpha virt. eigenvalues --  189.66004
  Beta  occ. eigenvalues --  -88.97946 -19.17746 -19.14910  -8.05268  -6.01837
  Beta  occ. eigenvalues --   -6.01243  -6.00511  -1.10164  -1.02665  -0.68511
  Beta  occ. eigenvalues --   -0.52850  -0.46267  -0.43721  -0.39528  -0.34840
  Beta  occ. eigenvalues --   -0.33344
  Beta virt. eigenvalues --   -0.11044  -0.03502   0.00588   0.02484   0.04738
  Beta virt. eigenvalues --    0.05533   0.07612   0.10976   0.15888   0.16987
  Beta virt. eigenvalues --    0.18445   0.19802   0.21922   0.22883   0.25498
  Beta virt. eigenvalues --    0.27057   0.27950   0.29503   0.31556   0.33313
  Beta virt. eigenvalues --    0.33710   0.34580   0.42717   0.46304   0.61563
  Beta virt. eigenvalues --    0.71740   0.73224   0.78189   0.81363   0.86200
  Beta virt. eigenvalues --    0.88465   0.88836   0.90160   0.91004   0.94126
  Beta virt. eigenvalues --    0.97145   1.01018   1.03598   1.06159   1.09282
  Beta virt. eigenvalues --    1.10851   1.13764   1.18819   1.27213   1.29582
  Beta virt. eigenvalues --    1.32597   1.36534   1.60538   1.61464   1.68070
  Beta virt. eigenvalues --    1.74596   1.85589   1.94333   1.98965   2.02465
  Beta virt. eigenvalues --    2.04224   2.12037   2.23053   2.29826   2.34129
  Beta virt. eigenvalues --    3.31195   3.35056   3.38365   3.40492   3.42284
  Beta virt. eigenvalues --    3.47089   3.49876   3.56742   3.60962   3.64408
  Beta virt. eigenvalues --    4.43983   4.49523   4.54310   4.59336   4.82049
  Beta virt. eigenvalues --    4.91426   4.94765   4.95684   4.96750   4.97964
  Beta virt. eigenvalues --    5.01816   5.02560   5.02827   5.05975   5.14884
  Beta virt. eigenvalues --    5.16779   5.32436   5.39278   5.42286   5.49315
  Beta virt. eigenvalues --    5.51175   5.64829   5.79881   5.89150   6.45100
  Beta virt. eigenvalues --    8.68617  14.21897  14.24531  14.27599  14.27886
  Beta virt. eigenvalues --   14.30232  14.34886  14.37287  14.38692  14.49134
  Beta virt. eigenvalues --   14.60751  17.23894  17.47636  17.82101  49.89872
  Beta virt. eigenvalues --   49.99136 189.66356
          Condensed to atoms (all electrons):
               1          2          3          4
     1  S   15.322945   0.033407   0.116465   0.007773
     2  O    0.033407   8.397058  -0.002360   0.191592
     3  O    0.116465  -0.002360   8.251078  -0.002425
     4  H    0.007773   0.191592  -0.002425   0.340014
          Atomic-Atomic Spin Densities.
               1          2          3          4
     1  S    0.946877  -0.096895  -0.202749  -0.001193
     2  O   -0.096895   0.147721   0.019942  -0.002433
     3  O   -0.202749   0.019942   0.470502  -0.000879
     4  H   -0.001193  -0.002433  -0.000879   0.003314
 Mulliken charges and spin densities:
               1          2
     1  S    0.519410   0.646040
     2  O   -0.619698   0.068335
     3  O   -0.362758   0.286817
     4  H    0.463045  -0.001191
 Sum of Mulliken charges =  -0.00000   1.00000
 Mulliken charges and spin densities with hydrogens summed into heavy atoms:
               1          2
     1  S    0.519410   0.646040
     2  O   -0.156652   0.067144
     3  O   -0.362758   0.286817
 Electronic spatial extent (au):  <R**2>=            179.7190
 Charge=             -0.0000 electrons
 Dipole moment (field-independent basis, Debye):
    X=              1.3497    Y=              0.1011    Z=              0.4135  Tot=              1.4153
 Quadrupole moment (field-independent basis, Debye-Ang):
   XX=            -25.2925   YY=            -21.3331   ZZ=            -23.9281
   XY=              4.6097   XZ=              0.6982   YZ=              0.5871
 Traceless Quadrupole moment (field-independent basis, Debye-Ang):
   XX=             -1.7746   YY=              2.1848   ZZ=             -0.4102
   XY=              4.6097   XZ=              0.6982   YZ=              0.5871
 Octapole moment (field-independent basis, Debye-Ang**2):
  XXX=              3.9416  YYY=              4.8284  ZZZ=             -0.0093  XYY=              5.4777
  XXY=              3.8758  XXZ=              1.1092  XZZ=             -0.2008  YZZ=              1.1884
  YYZ=              0.6392  XYZ=              0.8533
 Hexadecapole moment (field-independent basis, Debye-Ang**3):
 XXXX=           -138.9793 YYYY=            -53.9202 ZZZZ=            -25.8334 XXXY=             12.9308
 XXXZ=              1.9745 YYYX=              7.5541 YYYZ=              0.9370 ZZZX=              0.3741
 ZZZY=              0.3991 XXYY=            -24.8576 XXZZ=            -27.9542 YYZZ=            -14.5329
 XXYZ=              1.4811 YYXZ=              1.0644 ZZXY=              0.4081
 N-N= 1.109404392007D+02 E-N=-1.525965337808D+03  KE= 5.482874563208D+02
                          Isotropic Fermi Contact Couplings
        Atom                 a.u.       MegaHertz       Gauss      10(-4) cm-1
     1  S(33)              0.04881      16.76490       5.98213       5.59217
     2  O(17)              0.01825     -11.06547      -3.94843      -3.69104
     3  O(17)              0.03508     -21.26416      -7.58758      -7.09296
     4  H(1)              -0.00043      -1.91098      -0.68189      -0.63743
 --------------------------------------------------------
       Center         ----  Spin Dipole Couplings  ----
                      3XX-RR        3YY-RR        3ZZ-RR
 --------------------------------------------------------
     1   Atom       -1.477572     -1.596906      3.074478
     2   Atom       -0.247589     -0.225546      0.473136
     3   Atom       -0.764369     -0.771278      1.535647
     4   Atom       -0.006970      0.015914     -0.008943
 --------------------------------------------------------
                        XY            XZ            YZ
 --------------------------------------------------------
     1   Atom       -0.006928     -0.113535      0.063694
     2   Atom        0.016322     -0.005846     -0.093731
     3   Atom       -0.001498      0.021818      0.002452
     4   Atom        0.014247      0.001898      0.003074
 --------------------------------------------------------


 ---------------------------------------------------------------------------------
              Anisotropic Spin Dipole Couplings in Principal Axis System
 ---------------------------------------------------------------------------------

       Atom             a.u.   MegaHertz   Gauss  10(-4) cm-1        Axes

              Baa    -1.5980   -65.517   -23.378   -21.854  0.0457  0.9989 -0.0125
     1 S(33)  Bbb    -1.4802   -60.685   -21.654   -20.242  0.9986 -0.0453  0.0255
              Bcc     3.0782   126.203    45.032    42.097 -0.0249  0.0137  0.9996
 
              Baa    -0.2590    18.738     6.686     6.250  0.8068 -0.5868 -0.0687
     2 O(17)  Bbb    -0.2266    16.398     5.851     5.470  0.5907  0.7991  0.1120
              Bcc     0.4856   -35.136   -12.537   -11.720 -0.0108 -0.1309  0.9913
 
              Baa    -0.7716    55.833    19.923    18.624  0.2114  0.9774 -0.0030
     3 O(17)  Bbb    -0.7642    55.300    19.733    18.446  0.9774 -0.2114 -0.0090
              Bcc     1.5359  -111.134   -39.655   -37.070  0.0095  0.0011  1.0000
 
              Baa    -0.0138    -7.381    -2.634    -2.462  0.9021 -0.4233 -0.0841
     4 H(1)   Bbb    -0.0093    -4.969    -1.773    -1.658  0.0282 -0.1366  0.9902
              Bcc     0.0231    12.350     4.407     4.120  0.4307  0.8956  0.1113
 

 ---------------------------------------------------------------------------------

 1\1\GINC-QCEXNOD57\SP\UB3LYP\6-311+G(3df)\H1O2S1(2)\ROOT\16-Jul-2026\0
 \\#sp b3lyp/6-311+G(3df)\\single point of HOSO\\0,2\S,0,-0.15817,-0.48
 0675,0.011424\O,0,1.313478,0.274099,-0.033462\O,0,-1.169263,0.536268,-
 0.017893\H,0,1.520997,1.240861,0.183065\\Version=ES64L-G16RevA.03\Stat
 e=2-A\HF=-549.283918\S2=0.755016\S2-1=0.\S2A=0.750018\RMSD=3.299e-09\D
 ipole=0.5279782,0.0665049,0.163866\Quadrupole=-1.6560707,1.9601473,-0.
 3040766,3.2630537,0.4880402,0.4661609\PG=C01 [X(H1O2S1)]\\@


 SIGN SEEN IN A RESTAURANT-
 WE RESERVE THE RIGHT TO SERVE REFUSE TO ANYONE.
 Job cpu time:       0 days  0 hours  0 minutes 16.4 seconds.
 Elapsed time:       0 days  0 hours  0 minutes  8.6 seconds.
 File lengths (MBytes):  RWF=     16 Int=      0 D2E=      0 Chk=      2 Scr=      1
 Normal termination of Gaussian 16 at Thu Jul 16 14:38:22 2026.
