 Entering Gaussian System, Link 0=g16
 Initial command:
 /soft/g16.a03/g16/l1.exe "/scr/macias/296023.qcexmaster.qcexval.uv.es_vib3_0.40/Gau-15643.inp" -scrdir="/scr/macias/296023.qcexmaster.qcexval.uv.es_vib3_0.40/"
 Entering Link 1 = /soft/g16.a03/g16/l1.exe PID=     15645.
  
 Copyright (c) 1988,1990,1992,1993,1995,1998,2003,2009,2016,
            Gaussian, Inc.  All Rights Reserved.
  
 This is part of the Gaussian(R) 16 program.  It is based on
 the Gaussian(R) 09 system (copyright 2009, Gaussian, Inc.),
 the Gaussian(R) 03 system (copyright 2003, Gaussian, Inc.),
 the Gaussian(R) 98 system (copyright 1998, Gaussian, Inc.),
 the Gaussian(R) 94 system (copyright 1995, Gaussian, Inc.),
 the Gaussian 92(TM) system (copyright 1992, Gaussian, Inc.),
 the Gaussian 90(TM) system (copyright 1990, Gaussian, Inc.),
 the Gaussian 88(TM) system (copyright 1988, Gaussian, Inc.),
 the Gaussian 86(TM) system (copyright 1986, Carnegie Mellon
 University), and the Gaussian 82(TM) system (copyright 1983,
 Carnegie Mellon University). Gaussian is a federally registered
 trademark of Gaussian, Inc.
  
 This software contains proprietary and confidential information,
 including trade secrets, belonging to Gaussian, Inc.
  
 This software is provided under written license and may be
 used, copied, transmitted, or stored only in accord with that
 written license.
  
 The following legend is applicable only to US Government
 contracts under FAR:
  
                    RESTRICTED RIGHTS LEGEND
  
 Use, reproduction and disclosure by the US Government is
 subject to restrictions as set forth in subparagraphs (a)
 and (c) of the Commercial Computer Software - Restricted
 Rights clause in FAR 52.227-19.
  
 Gaussian, Inc.
 340 Quinnipiac St., Bldg. 40, Wallingford CT 06492
  
  
 ---------------------------------------------------------------
 Warning -- This program may not be used in any manner that
 competes with the business of Gaussian, Inc. or will provide
 assistance to any competitor of Gaussian, Inc.  The licensee
 of this program is prohibited from giving any competitor of
 Gaussian, Inc. access to this program.  By using this program,
 the user acknowledges that Gaussian, Inc. is engaged in the
 business of creating and licensing software in the field of
 computational chemistry and represents and warrants to the
 licensee that it is not a competitor of Gaussian, Inc. and that
 it will not use this program in any manner prohibited above.
 ---------------------------------------------------------------
  

 Cite this work as:
 Gaussian 16, Revision A.03,
 M. J. Frisch, G. W. Trucks, H. B. Schlegel, G. E. Scuseria, 
 M. A. Robb, J. R. Cheeseman, G. Scalmani, V. Barone, 
 G. A. Petersson, H. Nakatsuji, X. Li, M. Caricato, A. V. Marenich, 
 J. Bloino, B. G. Janesko, R. Gomperts, B. Mennucci, H. P. Hratchian, 
 J. V. Ortiz, A. F. Izmaylov, J. L. Sonnenberg, D. Williams-Young, 
 F. Ding, F. Lipparini, F. Egidi, J. Goings, B. Peng, A. Petrone, 
 T. Henderson, D. Ranasinghe, V. G. Zakrzewski, J. Gao, N. Rega, 
 G. Zheng, W. Liang, M. Hada, M. Ehara, K. Toyota, R. Fukuda, 
 J. Hasegawa, M. Ishida, T. Nakajima, Y. Honda, O. Kitao, H. Nakai, 
 T. Vreven, K. Throssell, J. A. Montgomery, Jr., J. E. Peralta, 
 F. Ogliaro, M. J. Bearpark, J. J. Heyd, E. N. Brothers, K. N. Kudin, 
 V. N. Staroverov, T. A. Keith, R. Kobayashi, J. Normand, 
 K. Raghavachari, A. P. Rendell, J. C. Burant, S. S. Iyengar, 
 J. Tomasi, M. Cossi, J. M. Millam, M. Klene, C. Adamo, R. Cammi, 
 J. W. Ochterski, R. L. Martin, K. Morokuma, O. Farkas, 
 J. B. Foresman, and D. J. Fox, Gaussian, Inc., Wallingford CT, 2016.
 
 ******************************************
 Gaussian 16:  ES64L-G16RevA.03 25-Dec-2016
                16-Jul-2026 
 ******************************************
 %chk=opt_freq.chk
 %nproc=2
 Will use up to    2 processors via shared memory.
 %mem=2GB
 ----------------------
 #sp b3lyp/6-311+G(3df)
 ----------------------
 1/38=1,172=1/1;
 2/12=2,17=6,18=5,40=1/2;
 3/5=4,6=6,7=16,11=2,25=1,30=1,74=-5/1,2,3;
 4//1;
 5/5=2,38=5/2;
 6/7=2,8=2,9=2,10=2,28=1/1;
 99/5=1,9=1/99;
 --------------------
 single point of HOSO
 --------------------
 Symbolic Z-matrix:
 Charge =  0 Multiplicity = 2
 S                    -0.01117  -0.37768   0.00642 
 O                     1.04448   0.1041   -0.01946 
 O                    -1.18826   0.51127  -0.01389 
 H                     1.345     1.10386   0.13207 
 
                          Input orientation:                          
 ---------------------------------------------------------------------
 Center     Atomic      Atomic             Coordinates (Angstroms)
 Number     Number       Type             X           Y           Z
 ---------------------------------------------------------------------
      1         16           0       -0.011170   -0.377675    0.006424
      2          8           0        1.044478    0.104099   -0.019462
      3          8           0       -1.188263    0.511268   -0.013893
      4          1           0        1.344997    1.103861    0.132065
 ---------------------------------------------------------------------
                    Distance matrix (angstroms):
                    1          2          3          4
     1  S    0.000000
     2  O    1.160676   0.000000
     3  O    1.475188   2.269570   0.000000
     4  H    2.012442   1.054892   2.605739   0.000000
 Stoichiometry    HO2S(2)
 Framework group  C1[X(HO2S)]
 Deg. of freedom     6
 Full point group                 C1      NOp   1
 Largest Abelian subgroup         C1      NOp   1
 Largest concise Abelian subgroup C1      NOp   1
                         Standard orientation:                         
 ---------------------------------------------------------------------
 Center     Atomic      Atomic             Coordinates (Angstroms)
 Number     Number       Type             X           Y           Z
 ---------------------------------------------------------------------
      1         16           0        0.043594   -0.374755    0.011001
      2          8           0        1.017395    0.255639   -0.027539
      3          8           0       -1.250790    0.332612   -0.008504
      4          1           0        1.169654    1.290071    0.112328
 ---------------------------------------------------------------------
 Rotational constants (GHZ):          56.6625114          11.7275272           9.7264851
 Standard basis: 6-311+G(3df) (5D, 7F)
 There are   146 symmetry adapted cartesian basis functions of A   symmetry.
 There are   128 symmetry adapted basis functions of A   symmetry.
   128 basis functions,   193 primitive gaussians,   146 cartesian basis functions
    17 alpha electrons       16 beta electrons
       nuclear repulsion energy       129.0412978937 Hartrees.
 NAtoms=    4 NActive=    4 NUniq=    4 SFac= 1.00D+00 NAtFMM=   60 NAOKFM=F Big=F
 Integral buffers will be    131072 words long.
 Raffenetti 2 integral format.
 Two-electron integral symmetry is turned on.
 One-electron integrals computed using PRISM.
 NBasis=   128 RedAO= T EigKep=  3.66D-04  NBF=   128
 NBsUse=   128 1.00D-06 EigRej= -1.00D+00 NBFU=   128
 ExpMin= 4.05D-02 ExpMax= 9.34D+04 ExpMxC= 3.17D+03 IAcc=3 IRadAn=         5 AccDes= 0.00D+00
 Harris functional with IExCor=  402 and IRadAn=       5 diagonalized for initial guess.
 HarFok:  IExCor=  402 AccDes= 0.00D+00 IRadAn=         5 IDoV= 1 UseB2=F ITyADJ=14
 ICtDFT=  3500011 ScaDFX=  1.000000  1.000000  1.000000  1.000000
 FoFCou: FMM=F IPFlag=           0 FMFlag=      100000 FMFlg1=           0
         NFxFlg=           0 DoJE=T BraDBF=F KetDBF=T FulRan=T
         wScrn=  0.000000 ICntrl=       500 IOpCl=  0 I1Cent=   200000004 NGrid=           0
         NMat0=    1 NMatS0=      1 NMatT0=    0 NMatD0=    1 NMtDS0=    0 NMtDT0=    0
 Petite list used in FoFCou.
 Initial guess <Sx>= 0.0000 <Sy>= 0.0000 <Sz>= 0.5000 <S**2>= 0.7500 S= 0.5000
 Keep R1 and R2 ints in memory in canonical form, NReq=70153357.
 Requested convergence on RMS density matrix=1.00D-08 within 128 cycles.
 Requested convergence on MAX density matrix=1.00D-06.
 Requested convergence on             energy=1.00D-06.
 No special actions if energy rises.
 SCF Done:  E(UB3LYP) =  -548.981085329     A.U. after   16 cycles
            NFock= 16  Conv=0.90D-08     -V/T= 1.9976
 <Sx>= 0.0000 <Sy>= 0.0000 <Sz>= 0.5000 <S**2>= 0.7550 S= 0.5025
 <L.S>= 0.000000000000E+00
 Annihilation of the first spin contaminant:
 S**2 before annihilation     0.7550,   after     0.7500

 **********************************************************************

            Population analysis using the SCF density.

 **********************************************************************

 Orbital symmetries:
 Alpha Orbitals:
       Occupied  (A) (A) (A) (A) (A) (A) (A) (A) (A) (A) (A) (A)
                 (A) (A) (A) (A) (A)
       Virtual   (A) (A) (A) (A) (A) (A) (A) (A) (A) (A) (A) (A)
                 (A) (A) (A) (A) (A) (A) (A) (A) (A) (A) (A) (A)
                 (A) (A) (A) (A) (A) (A) (A) (A) (A) (A) (A) (A)
                 (A) (A) (A) (A) (A) (A) (A) (A) (A) (A) (A) (A)
                 (A) (A) (A) (A) (A) (A) (A) (A) (A) (A) (A) (A)
                 (A) (A) (A) (A) (A) (A) (A) (A) (A) (A) (A) (A)
                 (A) (A) (A) (A) (A) (A) (A) (A) (A) (A) (A) (A)
                 (A) (A) (A) (A) (A) (A) (A) (A) (A) (A) (A) (A)
                 (A) (A) (A) (A) (A) (A) (A) (A) (A) (A) (A) (A)
                 (A) (A) (A)
 Beta  Orbitals:
       Occupied  (A) (A) (A) (A) (A) (A) (A) (A) (A) (A) (A) (A)
                 (A) (A) (A) (A)
       Virtual   (A) (A) (A) (A) (A) (A) (A) (A) (A) (A) (A) (A)
                 (A) (A) (A) (A) (A) (A) (A) (A) (A) (A) (A) (A)
                 (A) (A) (A) (A) (A) (A) (A) (A) (A) (A) (A) (A)
                 (A) (A) (A) (A) (A) (A) (A) (A) (A) (A) (A) (A)
                 (A) (A) (A) (A) (A) (A) (A) (A) (A) (A) (A) (A)
                 (A) (A) (A) (A) (A) (A) (A) (A) (A) (A) (A) (A)
                 (A) (A) (A) (A) (A) (A) (A) (A) (A) (A) (A) (A)
                 (A) (A) (A) (A) (A) (A) (A) (A) (A) (A) (A) (A)
                 (A) (A) (A) (A) (A) (A) (A) (A) (A) (A) (A) (A)
                 (A) (A) (A) (A)
 The electronic state is 2-A.
 Alpha  occ. eigenvalues --  -88.92696 -19.25520 -19.10651  -8.02111  -5.98721
 Alpha  occ. eigenvalues --   -5.97891  -5.97468  -1.34615  -1.01558  -0.80022
 Alpha  occ. eigenvalues --   -0.63441  -0.61699  -0.51768  -0.37151  -0.35828
 Alpha  occ. eigenvalues --   -0.30706  -0.15648
 Alpha virt. eigenvalues --   -0.07041   0.00922   0.03075   0.03622   0.05602
 Alpha virt. eigenvalues --    0.10915   0.12551   0.14846   0.16057   0.18862
 Alpha virt. eigenvalues --    0.20306   0.21812   0.24237   0.26143   0.26448
 Alpha virt. eigenvalues --    0.27424   0.29950   0.31109   0.34607   0.36590
 Alpha virt. eigenvalues --    0.37394   0.43981   0.56235   0.68072   0.71037
 Alpha virt. eigenvalues --    0.72655   0.76678   0.80106   0.80246   0.86209
 Alpha virt. eigenvalues --    0.87667   0.90909   0.95969   0.97228   0.99255
 Alpha virt. eigenvalues --    1.02302   1.04549   1.08127   1.11540   1.20543
 Alpha virt. eigenvalues --    1.23747   1.24844   1.35111   1.38165   1.46084
 Alpha virt. eigenvalues --    1.50435   1.58741   1.65203   1.78461   1.85080
 Alpha virt. eigenvalues --    1.90181   1.95117   2.01949   2.06403   2.11395
 Alpha virt. eigenvalues --    2.17533   2.25586   2.42808   2.63855   3.24352
 Alpha virt. eigenvalues --    3.32578   3.40610   3.43578   3.48343   3.50855
 Alpha virt. eigenvalues --    3.55992   3.65003   3.73177   3.82860   4.52399
 Alpha virt. eigenvalues --    4.62408   4.66445   4.75890   4.82201   4.86479
 Alpha virt. eigenvalues --    4.94011   4.99447   4.99741   5.02740   5.04594
 Alpha virt. eigenvalues --    5.06337   5.11397   5.14203   5.24571   5.28851
 Alpha virt. eigenvalues --    5.37900   5.43529   5.61985   5.64482   5.79620
 Alpha virt. eigenvalues --    5.84967   5.98259   6.51208   6.69296   9.21293
 Alpha virt. eigenvalues --   14.13738  14.18225  14.29203  14.30289  14.35604
 Alpha virt. eigenvalues --   14.37085  14.42889  14.53003  14.71625  14.75844
 Alpha virt. eigenvalues --   17.35404  17.68303  18.38255  50.02157  50.29323
 Alpha virt. eigenvalues --  190.46444
  Beta  occ. eigenvalues --  -88.92350 -19.25124 -19.09921  -8.01786  -5.98532
  Beta  occ. eigenvalues --   -5.97303  -5.96763  -1.33926  -1.00225  -0.79054
  Beta  occ. eigenvalues --   -0.61272  -0.60994  -0.49674  -0.34877  -0.33133
  Beta  occ. eigenvalues --   -0.29372
  Beta virt. eigenvalues --   -0.06582  -0.04252   0.01237   0.03342   0.03876
  Beta virt. eigenvalues --    0.05918   0.11320   0.13413   0.15148   0.16244
  Beta virt. eigenvalues --    0.19304   0.20980   0.22110   0.24438   0.26239
  Beta virt. eigenvalues --    0.27254   0.28169   0.31320   0.31971   0.34751
  Beta virt. eigenvalues --    0.36837   0.39122   0.44563   0.56715   0.68462
  Beta virt. eigenvalues --    0.71470   0.73438   0.77466   0.80605   0.80884
  Beta virt. eigenvalues --    0.87183   0.89325   0.91282   0.96903   0.98060
  Beta virt. eigenvalues --    1.00425   1.03049   1.06221   1.08445   1.12077
  Beta virt. eigenvalues --    1.21540   1.24042   1.26171   1.35671   1.39133
  Beta virt. eigenvalues --    1.47209   1.50928   1.62273   1.67067   1.80082
  Beta virt. eigenvalues --    1.85907   1.90619   1.96399   2.02417   2.08860
  Beta virt. eigenvalues --    2.11665   2.18616   2.26125   2.43994   2.64356
  Beta virt. eigenvalues --    3.25376   3.33636   3.42456   3.45422   3.48761
  Beta virt. eigenvalues --    3.52716   3.57413   3.65859   3.73722   3.83204
  Beta virt. eigenvalues --    4.53255   4.63298   4.67007   4.76862   4.82930
  Beta virt. eigenvalues --    4.87161   4.94368   5.00458   5.01153   5.04276
  Beta virt. eigenvalues --    5.06476   5.07638   5.12507   5.15725   5.25154
  Beta virt. eigenvalues --    5.29518   5.38822   5.44341   5.62823   5.65672
  Beta virt. eigenvalues --    5.80073   5.86374   5.98609   6.51754   6.69651
  Beta virt. eigenvalues --    9.21730  14.15136  14.19573  14.31905  14.32946
  Beta virt. eigenvalues --   14.37518  14.38064  14.44956  14.53609  14.72421
  Beta virt. eigenvalues --   14.76745  17.36928  17.68554  18.38570  50.02864
  Beta virt. eigenvalues --   50.29732 190.46757
          Condensed to atoms (all electrons):
               1          2          3          4
     1  S   16.191931  -0.681384   0.128673   0.031627
     2  O   -0.681384   8.916543   0.013991   0.017260
     3  O    0.128673   0.013991   8.360537  -0.003325
     4  H    0.031627   0.017260  -0.003325   0.517306
          Atomic-Atomic Spin Densities.
               1          2          3          4
     1  S    1.281936  -0.331002  -0.238218  -0.001162
     2  O   -0.331002   0.429187   0.056312  -0.132004
     3  O   -0.238218   0.056312   0.387985  -0.008775
     4  H   -0.001162  -0.132004  -0.008775   0.210590
 Mulliken charges and spin densities:
               1          2
     1  S    0.329153   0.711555
     2  O   -0.266410   0.022494
     3  O   -0.499875   0.197303
     4  H    0.437132   0.068648
 Sum of Mulliken charges =  -0.00000   1.00000
 Mulliken charges and spin densities with hydrogens summed into heavy atoms:
               1          2
     1  S    0.329153   0.711555
     2  O    0.170722   0.091142
     3  O   -0.499875   0.197303
 Electronic spatial extent (au):  <R**2>=            150.9253
 Charge=              0.0000 electrons
 Dipole moment (field-independent basis, Debye):
    X=              4.3328    Y=              1.8275    Z=              0.0398  Tot=              4.7026
 Quadrupole moment (field-independent basis, Debye-Ang):
   XX=            -25.1254   YY=            -21.7410   ZZ=            -23.8750
   XY=              3.8382   XZ=              0.2401   YZ=              0.3702
 Traceless Quadrupole moment (field-independent basis, Debye-Ang):
   XX=             -1.5449   YY=              1.8394   ZZ=             -0.2945
   XY=              3.8382   XZ=              0.2401   YZ=              0.3702
 Octapole moment (field-independent basis, Debye-Ang**2):
  XXX=             10.5263  YYY=              7.5762  ZZZ=             -0.6407  XYY=              5.5574
  XXY=              1.8498  XXZ=              0.2613  XZZ=              1.7801  YZZ=              2.0065
  YYZ=              0.0148  XYZ=              0.1745
 Hexadecapole moment (field-independent basis, Debye-Ang**3):
 XXXX=           -117.8847 YYYY=            -47.2373 ZZZZ=            -28.0072 XXXY=              6.1657
 XXXZ=              0.0403 YYYX=              8.0950 YYYZ=              0.3853 ZZZX=             -0.1412
 ZZZY=              0.2625 XXYY=            -23.1369 XXZZ=            -23.6749 YYZZ=            -14.2499
 XXYZ=              0.2786 YYXZ=              0.2535 ZZXY=              0.8420
 N-N= 1.290412978937D+02 E-N=-1.562841607440D+03  KE= 5.503218264464D+02
                          Isotropic Fermi Contact Couplings
        Atom                 a.u.       MegaHertz       Gauss      10(-4) cm-1
     1  S(33)              0.06083      20.89211       7.45482       6.96886
     2  O(17)              0.04904     -29.72490     -10.60658      -9.91516
     3  O(17)              0.03011     -18.25264      -6.51299      -6.08842
     4  H(1)               0.01246      55.68396      19.86942      18.57417
 --------------------------------------------------------
       Center         ----  Spin Dipole Couplings  ----
                      3XX-RR        3YY-RR        3ZZ-RR
 --------------------------------------------------------
     1   Atom       -1.304986     -1.444752      2.749738
     2   Atom       -0.294231     -0.260131      0.554362
     3   Atom       -0.561981     -0.566785      1.128766
     4   Atom       -0.014208      0.021758     -0.007550
 --------------------------------------------------------
                        XY            XZ            YZ
 --------------------------------------------------------
     1   Atom        0.004837     -0.287603      0.045280
     2   Atom        0.055046     -0.118886     -0.303439
     3   Atom       -0.016052      0.131394     -0.106267
     4   Atom        0.011767      0.000947      0.004985
 --------------------------------------------------------


 ---------------------------------------------------------------------------------
              Anisotropic Spin Dipole Couplings in Principal Axis System
 ---------------------------------------------------------------------------------

       Atom             a.u.   MegaHertz   Gauss  10(-4) cm-1        Axes

              Baa    -1.4458   -59.275   -21.151   -19.772 -0.0654  0.9977 -0.0153
     1 S(33)  Bbb    -1.3248   -54.314   -19.380   -18.117  0.9954  0.0664  0.0695
              Bcc     2.7705   113.588    40.531    37.889 -0.0704  0.0106  0.9975
 
              Baa    -0.3648    26.398     9.420     8.806 -0.2648  0.9254  0.2712
     2 O(17)  Bbb    -0.3077    22.264     7.944     7.426  0.9550  0.2127  0.2066
              Bcc     0.6725   -48.662   -17.364   -16.232 -0.1335 -0.3137  0.9401
 
              Baa    -0.5806    42.015    14.992    14.015  0.6772  0.7358 -0.0063
     3 O(17)  Bbb    -0.5650    40.881    14.588    13.637  0.7318 -0.6743 -0.0991
              Bcc     1.1456   -82.897   -29.580   -27.651  0.0772 -0.0625  0.9951
 
              Baa    -0.0177    -9.467    -3.378    -3.158  0.9551 -0.2913  0.0537
     4 H(1)   Bbb    -0.0083    -4.418    -1.577    -1.474 -0.0943 -0.1270  0.9874
              Bcc     0.0260    13.886     4.955     4.632  0.2808  0.9482  0.1487
 

 ---------------------------------------------------------------------------------

 1\1\GINC-QCEXNOD57\SP\UB3LYP\6-311+G(3df)\H1O2S1(2)\ROOT\16-Jul-2026\0
 \\#sp b3lyp/6-311+G(3df)\\single point of HOSO\\0,2\S,0,-0.01117,-0.37
 7675,0.006424\O,0,1.044478,0.104099,-0.019462\O,0,-1.188263,0.511268,-
 0.013893\H,0,1.344997,1.103861,0.132065\\Version=ES64L-G16RevA.03\Stat
 e=2-A\HF=-548.9810853\S2=0.754955\S2-1=0.\S2A=0.750016\RMSD=9.039e-09\
 Dipole=1.7911611,0.4621951,0.0338231\Quadrupole=-0.2743032,0.4848075,-
 0.2105044,3.0911703,0.2451665,0.2766648\PG=C01 [X(H1O2S1)]\\@


 THERE IS NO CURE FOR BIRTH AND DEATH SAVE TO ENJOY THE INTERVAL.

                               -- GEORGE SANTAYANA
 Job cpu time:       0 days  0 hours  0 minutes 18.3 seconds.
 Elapsed time:       0 days  0 hours  0 minutes  9.5 seconds.
 File lengths (MBytes):  RWF=     16 Int=      0 D2E=      0 Chk=      2 Scr=      1
 Normal termination of Gaussian 16 at Thu Jul 16 14:38:23 2026.
