 Entering Gaussian System, Link 0=g16
 Initial command:
 /soft/g16.a03/g16/l1.exe "/scr/macias/296021.qcexmaster.qcexval.uv.es_vib3_0.20/Gau-15503.inp" -scrdir="/scr/macias/296021.qcexmaster.qcexval.uv.es_vib3_0.20/"
 Entering Link 1 = /soft/g16.a03/g16/l1.exe PID=     15506.
  
 Copyright (c) 1988,1990,1992,1993,1995,1998,2003,2009,2016,
            Gaussian, Inc.  All Rights Reserved.
  
 This is part of the Gaussian(R) 16 program.  It is based on
 the Gaussian(R) 09 system (copyright 2009, Gaussian, Inc.),
 the Gaussian(R) 03 system (copyright 2003, Gaussian, Inc.),
 the Gaussian(R) 98 system (copyright 1998, Gaussian, Inc.),
 the Gaussian(R) 94 system (copyright 1995, Gaussian, Inc.),
 the Gaussian 92(TM) system (copyright 1992, Gaussian, Inc.),
 the Gaussian 90(TM) system (copyright 1990, Gaussian, Inc.),
 the Gaussian 88(TM) system (copyright 1988, Gaussian, Inc.),
 the Gaussian 86(TM) system (copyright 1986, Carnegie Mellon
 University), and the Gaussian 82(TM) system (copyright 1983,
 Carnegie Mellon University). Gaussian is a federally registered
 trademark of Gaussian, Inc.
  
 This software contains proprietary and confidential information,
 including trade secrets, belonging to Gaussian, Inc.
  
 This software is provided under written license and may be
 used, copied, transmitted, or stored only in accord with that
 written license.
  
 The following legend is applicable only to US Government
 contracts under FAR:
  
                    RESTRICTED RIGHTS LEGEND
  
 Use, reproduction and disclosure by the US Government is
 subject to restrictions as set forth in subparagraphs (a)
 and (c) of the Commercial Computer Software - Restricted
 Rights clause in FAR 52.227-19.
  
 Gaussian, Inc.
 340 Quinnipiac St., Bldg. 40, Wallingford CT 06492
  
  
 ---------------------------------------------------------------
 Warning -- This program may not be used in any manner that
 competes with the business of Gaussian, Inc. or will provide
 assistance to any competitor of Gaussian, Inc.  The licensee
 of this program is prohibited from giving any competitor of
 Gaussian, Inc. access to this program.  By using this program,
 the user acknowledges that Gaussian, Inc. is engaged in the
 business of creating and licensing software in the field of
 computational chemistry and represents and warrants to the
 licensee that it is not a competitor of Gaussian, Inc. and that
 it will not use this program in any manner prohibited above.
 ---------------------------------------------------------------
  

 Cite this work as:
 Gaussian 16, Revision A.03,
 M. J. Frisch, G. W. Trucks, H. B. Schlegel, G. E. Scuseria, 
 M. A. Robb, J. R. Cheeseman, G. Scalmani, V. Barone, 
 G. A. Petersson, H. Nakatsuji, X. Li, M. Caricato, A. V. Marenich, 
 J. Bloino, B. G. Janesko, R. Gomperts, B. Mennucci, H. P. Hratchian, 
 J. V. Ortiz, A. F. Izmaylov, J. L. Sonnenberg, D. Williams-Young, 
 F. Ding, F. Lipparini, F. Egidi, J. Goings, B. Peng, A. Petrone, 
 T. Henderson, D. Ranasinghe, V. G. Zakrzewski, J. Gao, N. Rega, 
 G. Zheng, W. Liang, M. Hada, M. Ehara, K. Toyota, R. Fukuda, 
 J. Hasegawa, M. Ishida, T. Nakajima, Y. Honda, O. Kitao, H. Nakai, 
 T. Vreven, K. Throssell, J. A. Montgomery, Jr., J. E. Peralta, 
 F. Ogliaro, M. J. Bearpark, J. J. Heyd, E. N. Brothers, K. N. Kudin, 
 V. N. Staroverov, T. A. Keith, R. Kobayashi, J. Normand, 
 K. Raghavachari, A. P. Rendell, J. C. Burant, S. S. Iyengar, 
 J. Tomasi, M. Cossi, J. M. Millam, M. Klene, C. Adamo, R. Cammi, 
 J. W. Ochterski, R. L. Martin, K. Morokuma, O. Farkas, 
 J. B. Foresman, and D. J. Fox, Gaussian, Inc., Wallingford CT, 2016.
 
 ******************************************
 Gaussian 16:  ES64L-G16RevA.03 25-Dec-2016
                16-Jul-2026 
 ******************************************
 %chk=opt_freq.chk
 %nproc=2
 Will use up to    2 processors via shared memory.
 %mem=2GB
 ----------------------
 #sp b3lyp/6-311+G(3df)
 ----------------------
 1/38=1,172=1/1;
 2/12=2,17=6,18=5,40=1/2;
 3/5=4,6=6,7=16,11=2,25=1,30=1,74=-5/1,2,3;
 4//1;
 5/5=2,38=5/2;
 6/7=2,8=2,9=2,10=2,28=1/1;
 99/5=1,9=1/99;
 --------------------
 single point of HOSO
 --------------------
 Symbolic Z-matrix:
 Charge =  0 Multiplicity = 2
 S                    -0.07717  -0.42768   0.01042 
 O                     1.18648   0.1801   -0.02946 
 O                    -1.19226   0.53127  -0.01589 
 H                     1.289     1.14386   0.18007 
 
                          Input orientation:                          
 ---------------------------------------------------------------------
 Center     Atomic      Atomic             Coordinates (Angstroms)
 Number     Number       Type             X           Y           Z
 ---------------------------------------------------------------------
      1         16           0       -0.077170   -0.427675    0.010424
      2          8           0        1.186478    0.180099   -0.029462
      3          8           0       -1.192263    0.531268   -0.015893
      4          1           0        1.288997    1.143861    0.180065
 ---------------------------------------------------------------------
                    Distance matrix (angstroms):
                    1          2          3          4
     1  S    0.000000
     2  O    1.402778   0.000000
     3  O    1.470951   2.404561   0.000000
     4  H    2.089238   0.991589   2.563264   0.000000
 Stoichiometry    HO2S(2)
 Framework group  C1[X(HO2S)]
 Deg. of freedom     6
 Full point group                 C1      NOp   1
 Largest Abelian subgroup         C1      NOp   1
 Largest concise Abelian subgroup C1      NOp   1
                         Standard orientation:                         
 ---------------------------------------------------------------------
 Center     Atomic      Atomic             Coordinates (Angstroms)
 Number     Number       Type             X           Y           Z
 ---------------------------------------------------------------------
      1         16           0       -0.044593   -0.432029    0.013132
      2          8           0        1.168941    0.270004   -0.034523
      3          8           0       -1.229571    0.439084   -0.013026
      4          1           0        1.198522    1.239763    0.170275
 ---------------------------------------------------------------------
 Rotational constants (GHZ):          43.0613359          10.6079474           8.5259099
 Standard basis: 6-311+G(3df) (5D, 7F)
 There are   146 symmetry adapted cartesian basis functions of A   symmetry.
 There are   128 symmetry adapted basis functions of A   symmetry.
   128 basis functions,   193 primitive gaussians,   146 cartesian basis functions
    17 alpha electrons       16 beta electrons
       nuclear repulsion energy       118.3924484136 Hartrees.
 NAtoms=    4 NActive=    4 NUniq=    4 SFac= 1.00D+00 NAtFMM=   60 NAOKFM=F Big=F
 Integral buffers will be    131072 words long.
 Raffenetti 2 integral format.
 Two-electron integral symmetry is turned on.
 One-electron integrals computed using PRISM.
 NBasis=   128 RedAO= T EigKep=  6.55D-04  NBF=   128
 NBsUse=   128 1.00D-06 EigRej= -1.00D+00 NBFU=   128
 ExpMin= 4.05D-02 ExpMax= 9.34D+04 ExpMxC= 3.17D+03 IAcc=3 IRadAn=         5 AccDes= 0.00D+00
 Harris functional with IExCor=  402 and IRadAn=       5 diagonalized for initial guess.
 HarFok:  IExCor=  402 AccDes= 0.00D+00 IRadAn=         5 IDoV= 1 UseB2=F ITyADJ=14
 ICtDFT=  3500011 ScaDFX=  1.000000  1.000000  1.000000  1.000000
 FoFCou: FMM=F IPFlag=           0 FMFlag=      100000 FMFlg1=           0
         NFxFlg=           0 DoJE=T BraDBF=F KetDBF=T FulRan=T
         wScrn=  0.000000 ICntrl=       500 IOpCl=  0 I1Cent=   200000004 NGrid=           0
         NMat0=    1 NMatS0=      1 NMatT0=    0 NMatD0=    1 NMtDS0=    0 NMtDT0=    0
 Petite list used in FoFCou.
 Initial guess <Sx>= 0.0000 <Sy>= 0.0000 <Sz>= 0.5000 <S**2>= 0.7500 S= 0.5000
 Keep R1 and R2 ints in memory in canonical form, NReq=70153179.
 Requested convergence on RMS density matrix=1.00D-08 within 128 cycles.
 Requested convergence on MAX density matrix=1.00D-06.
 Requested convergence on             energy=1.00D-06.
 No special actions if energy rises.
 SCF Done:  E(UB3LYP) =  -549.251468024     A.U. after   13 cycles
            NFock= 13  Conv=0.61D-08     -V/T= 2.0007
 <Sx>= 0.0000 <Sy>= 0.0000 <Sz>= 0.5000 <S**2>= 0.7553 S= 0.5027
 <L.S>= 0.000000000000E+00
 Annihilation of the first spin contaminant:
 S**2 before annihilation     0.7553,   after     0.7500

 **********************************************************************

            Population analysis using the SCF density.

 **********************************************************************

 Orbital symmetries:
 Alpha Orbitals:
       Occupied  (A) (A) (A) (A) (A) (A) (A) (A) (A) (A) (A) (A)
                 (A) (A) (A) (A) (A)
       Virtual   (A) (A) (A) (A) (A) (A) (A) (A) (A) (A) (A) (A)
                 (A) (A) (A) (A) (A) (A) (A) (A) (A) (A) (A) (A)
                 (A) (A) (A) (A) (A) (A) (A) (A) (A) (A) (A) (A)
                 (A) (A) (A) (A) (A) (A) (A) (A) (A) (A) (A) (A)
                 (A) (A) (A) (A) (A) (A) (A) (A) (A) (A) (A) (A)
                 (A) (A) (A) (A) (A) (A) (A) (A) (A) (A) (A) (A)
                 (A) (A) (A) (A) (A) (A) (A) (A) (A) (A) (A) (A)
                 (A) (A) (A) (A) (A) (A) (A) (A) (A) (A) (A) (A)
                 (A) (A) (A) (A) (A) (A) (A) (A) (A) (A) (A) (A)
                 (A) (A) (A)
 Beta  Orbitals:
       Occupied  (A) (A) (A) (A) (A) (A) (A) (A) (A) (A) (A) (A)
                 (A) (A) (A) (A)
       Virtual   (A) (A) (A) (A) (A) (A) (A) (A) (A) (A) (A) (A)
                 (A) (A) (A) (A) (A) (A) (A) (A) (A) (A) (A) (A)
                 (A) (A) (A) (A) (A) (A) (A) (A) (A) (A) (A) (A)
                 (A) (A) (A) (A) (A) (A) (A) (A) (A) (A) (A) (A)
                 (A) (A) (A) (A) (A) (A) (A) (A) (A) (A) (A) (A)
                 (A) (A) (A) (A) (A) (A) (A) (A) (A) (A) (A) (A)
                 (A) (A) (A) (A) (A) (A) (A) (A) (A) (A) (A) (A)
                 (A) (A) (A) (A) (A) (A) (A) (A) (A) (A) (A) (A)
                 (A) (A) (A) (A) (A) (A) (A) (A) (A) (A) (A) (A)
                 (A) (A) (A) (A)
 The electronic state is 2-A.
 Alpha  occ. eigenvalues --  -88.95957 -19.22456 -19.13309  -8.03666  -6.00087
 Alpha  occ. eigenvalues --   -5.99785  -5.99383  -1.20794  -1.03858  -0.75028
 Alpha  occ. eigenvalues --   -0.55439  -0.52510  -0.51628  -0.39583  -0.38544
 Alpha  occ. eigenvalues --   -0.32946  -0.19907
 Alpha virt. eigenvalues --   -0.02888   0.01487   0.02693   0.04256   0.05486
 Alpha virt. eigenvalues --    0.09579   0.12008   0.14693   0.16032   0.17894
 Alpha virt. eigenvalues --    0.19512   0.21441   0.23122   0.25513   0.26387
 Alpha virt. eigenvalues --    0.28500   0.30733   0.30912   0.32829   0.33342
 Alpha virt. eigenvalues --    0.34300   0.45809   0.50083   0.63625   0.70065
 Alpha virt. eigenvalues --    0.72006   0.78365   0.79508   0.85134   0.85936
 Alpha virt. eigenvalues --    0.88109   0.89833   0.93326   0.95557   0.97324
 Alpha virt. eigenvalues --    1.01987   1.02893   1.06189   1.09674   1.13899
 Alpha virt. eigenvalues --    1.20715   1.21421   1.27569   1.29852   1.32786
 Alpha virt. eigenvalues --    1.40379   1.57977   1.62441   1.69224   1.75460
 Alpha virt. eigenvalues --    1.84242   1.95171   2.02741   2.05133   2.09117
 Alpha virt. eigenvalues --    2.14100   2.21463   2.36094   2.40273   3.25691
 Alpha virt. eigenvalues --    3.33147   3.37363   3.40914   3.41413   3.48337
 Alpha virt. eigenvalues --    3.50992   3.55591   3.62366   3.70812   4.50584
 Alpha virt. eigenvalues --    4.53269   4.53345   4.74855   4.86020   4.89022
 Alpha virt. eigenvalues --    4.92392   4.92954   4.96051   4.96861   5.00900
 Alpha virt. eigenvalues --    5.02898   5.03768   5.10748   5.16879   5.20968
 Alpha virt. eigenvalues --    5.35052   5.47983   5.56343   5.62052   5.67534
 Alpha virt. eigenvalues --    5.72119   5.85962   6.00792   6.61878   9.00501
 Alpha virt. eigenvalues --   14.16139  14.21890  14.26469  14.27189  14.28050
 Alpha virt. eigenvalues --   14.34518  14.36814  14.41361  14.54588  14.65228
 Alpha virt. eigenvalues --   17.25640  17.60696  18.03441  49.92672  50.01059
 Alpha virt. eigenvalues --  190.03240
  Beta  occ. eigenvalues --  -88.95568 -19.22088 -19.12410  -8.03308  -5.99880
  Beta  occ. eigenvalues --   -5.99202  -5.98529  -1.19993  -1.02278  -0.73864
  Beta  occ. eigenvalues --   -0.54046  -0.50589  -0.49800  -0.37777  -0.34668
  Beta  occ. eigenvalues --   -0.31741
  Beta virt. eigenvalues --   -0.08357  -0.02672   0.01932   0.02895   0.04520
  Beta virt. eigenvalues --    0.06208   0.10236   0.12481   0.14945   0.16318
  Beta virt. eigenvalues --    0.18206   0.20185   0.21692   0.23350   0.25577
  Beta virt. eigenvalues --    0.27537   0.28825   0.31712   0.32130   0.33563
  Beta virt. eigenvalues --    0.34184   0.34982   0.46109   0.50719   0.64006
  Beta virt. eigenvalues --    0.70487   0.72613   0.79312   0.80084   0.85859
  Beta virt. eigenvalues --    0.86556   0.89862   0.90301   0.94219   0.96676
  Beta virt. eigenvalues --    0.98200   1.03061   1.04927   1.06499   1.10100
  Beta virt. eigenvalues --    1.14918   1.21535   1.22358   1.28292   1.30832
  Beta virt. eigenvalues --    1.33359   1.40660   1.61506   1.64206   1.70721
  Beta virt. eigenvalues --    1.77026   1.84880   1.96480   2.05097   2.05514
  Beta virt. eigenvalues --    2.09488   2.14967   2.22131   2.37002   2.40630
  Beta virt. eigenvalues --    3.26717   3.34133   3.38996   3.42879   3.43402
  Beta virt. eigenvalues --    3.49851   3.52281   3.56154   3.63395   3.71112
  Beta virt. eigenvalues --    4.51532   4.53631   4.54083   4.75791   4.86689
  Beta virt. eigenvalues --    4.89455   4.93175   4.94390   4.96937   4.97772
  Beta virt. eigenvalues --    5.04172   5.05047   5.05564   5.11597   5.17876
  Beta virt. eigenvalues --    5.22081   5.35776   5.48795   5.57053   5.63468
  Beta virt. eigenvalues --    5.67993   5.72606   5.87390   6.01292   6.62338
  Beta virt. eigenvalues --    9.00956  14.17579  14.23293  14.28742  14.30071
  Beta virt. eigenvalues --   14.31013  14.35429  14.39748  14.41982  14.55310
  Beta virt. eigenvalues --   14.66563  17.27308  17.60968  18.03768  49.93114
  Beta virt. eigenvalues --   50.01870 190.03591
          Condensed to atoms (all electrons):
               1          2          3          4
     1  S   15.643056  -0.185581   0.113173   0.007341
     2  O   -0.185581   8.441766   0.011174   0.186669
     3  O    0.113173   0.011174   8.326726   0.001056
     4  H    0.007341   0.186669   0.001056   0.320789
          Atomic-Atomic Spin Densities.
               1          2          3          4
     1  S    1.073606  -0.188151  -0.212975  -0.003653
     2  O   -0.188151   0.239002   0.030454  -0.012018
     3  O   -0.212975   0.030454   0.443863  -0.001080
     4  H   -0.003653  -0.012018  -0.001080   0.018375
 Mulliken charges and spin densities:
               1          2
     1  S    0.422011   0.668827
     2  O   -0.454027   0.069287
     3  O   -0.452129   0.260263
     4  H    0.484145   0.001624
 Sum of Mulliken charges =  -0.00000   1.00000
 Mulliken charges and spin densities with hydrogens summed into heavy atoms:
               1          2
     1  S    0.422011   0.668827
     2  O    0.030118   0.070910
     3  O   -0.452129   0.260263
 Electronic spatial extent (au):  <R**2>=            164.1921
 Charge=             -0.0000 electrons
 Dipole moment (field-independent basis, Debye):
    X=              2.8404    Y=              0.9748    Z=              0.3380  Tot=              3.0220
 Quadrupole moment (field-independent basis, Debye-Ang):
   XX=            -25.9985   YY=            -21.2335   ZZ=            -23.8191
   XY=              3.7899   XZ=              0.5027   YZ=              0.5890
 Traceless Quadrupole moment (field-independent basis, Debye-Ang):
   XX=             -2.3148   YY=              2.4502   ZZ=             -0.1354
   XY=              3.7899   XZ=              0.5027   YZ=              0.5890
 Octapole moment (field-independent basis, Debye-Ang**2):
  XXX=              6.2889  YYY=              6.9798  ZZZ=             -0.2031  XYY=              5.4427
  XXY=              1.6769  XXZ=              0.6302  XZZ=              0.9298  YZZ=              1.5640
  YYZ=              0.6668  XYZ=              0.6328
 Hexadecapole moment (field-independent basis, Debye-Ang**3):
 XXXX=           -129.7215 YYYY=            -48.2768 ZZZZ=            -26.2614 XXXY=              6.8063
 XXXZ=              0.8700 YYYX=              8.2064 YYYZ=              1.0227 ZZZX=              0.2226
 ZZZY=              0.4320 XXYY=            -24.3273 XXZZ=            -25.3359 YYZZ=            -13.9235
 XXYZ=              0.8908 YYXZ=              0.8545 ZZXY=              0.7224
 N-N= 1.183924484136D+02 E-N=-1.541033753828D+03  KE= 5.488435239042D+02
                          Isotropic Fermi Contact Couplings
        Atom                 a.u.       MegaHertz       Gauss      10(-4) cm-1
     1  S(33)              0.07385      25.36704       9.05159       8.46153
     2  O(17)              0.02168     -13.14215      -4.68945      -4.38375
     3  O(17)              0.03416     -20.70999      -7.38984      -6.90811
     4  H(1)               0.00060       2.70136       0.96391       0.90108
 --------------------------------------------------------
       Center         ----  Spin Dipole Couplings  ----
                      3XX-RR        3YY-RR        3ZZ-RR
 --------------------------------------------------------
     1   Atom       -1.478587     -1.604611      3.083198
     2   Atom       -0.295133     -0.279796      0.574929
     3   Atom       -0.705876     -0.703765      1.409641
     4   Atom       -0.015031      0.025877     -0.010846
 --------------------------------------------------------
                        XY            XZ            YZ
 --------------------------------------------------------
     1   Atom       -0.003721     -0.092278      0.144566
     2   Atom        0.025580     -0.016516     -0.123578
     3   Atom       -0.006921      0.085652      0.010124
     4   Atom        0.008682      0.001092      0.003646
 --------------------------------------------------------


 ---------------------------------------------------------------------------------
              Anisotropic Spin Dipole Couplings in Principal Axis System
 ---------------------------------------------------------------------------------

       Atom             a.u.   MegaHertz   Gauss  10(-4) cm-1        Axes

              Baa    -1.6091   -65.970   -23.540   -22.005  0.0068  0.9995 -0.0307
     1 S(33)  Bbb    -1.4804   -60.697   -21.658   -20.246  0.9998 -0.0062  0.0204
              Bcc     3.0895   126.667    45.198    42.252 -0.0202  0.0308  0.9993
 
              Baa    -0.3195    23.116     8.248     7.711 -0.6936  0.7152  0.0860
     2 O(17)  Bbb    -0.2734    19.785     7.060     6.599  0.7200  0.6846  0.1137
              Bcc     0.5929   -42.901   -15.308   -14.310 -0.0225 -0.1408  0.9898
 
              Baa    -0.7144    51.694    18.446    17.243  0.8217  0.5687 -0.0358
     3 O(17)  Bbb    -0.6987    50.561    18.041    16.865 -0.5684  0.8225  0.0191
              Bcc     1.4131  -102.254   -36.487   -34.108  0.0404  0.0046  0.9992
 
              Baa    -0.0168    -8.973    -3.202    -2.993  0.9791 -0.1939 -0.0606
     4 H(1)   Bbb    -0.0112    -5.973    -2.131    -1.992  0.0403 -0.1071  0.9934
              Bcc     0.0280    14.946     5.333     4.986  0.1991  0.9751  0.0971
 

 ---------------------------------------------------------------------------------

 1\1\GINC-QCEXNOD57\SP\UB3LYP\6-311+G(3df)\H1O2S1(2)\ROOT\16-Jul-2026\0
 \\#sp b3lyp/6-311+G(3df)\\single point of HOSO\\0,2\S,0,-0.07717,-0.42
 7675,0.010424\O,0,1.186478,0.180099,-0.029462\O,0,-1.192263,0.531268,-
 0.015893\H,0,1.288997,1.143861,0.180065\\Version=ES64L-G16RevA.03\Stat
 e=2-A\HF=-549.251468\S2=0.75531\S2-1=0.\S2A=0.750019\RMSD=6.066e-09\Di
 pole=1.1429155,0.296696,0.1388585\Quadrupole=-1.2758113,1.3694865,-0.0
 936751,3.0505088,0.4150047,0.4269143\PG=C01 [X(H1O2S1)]\\@


 FESTINA LENTE!
     - IMPERATOR AUGUSTUS 
 Job cpu time:       0 days  0 hours  0 minutes 15.4 seconds.
 Elapsed time:       0 days  0 hours  0 minutes  8.0 seconds.
 File lengths (MBytes):  RWF=     16 Int=      0 D2E=      0 Chk=      2 Scr=      1
 Normal termination of Gaussian 16 at Thu Jul 16 14:38:21 2026.
