 Entering Gaussian System, Link 0=g09
 Initial command:
 /soft/g09.c01/g09/l1.exe /scr/macias/383311.qcexmaster_b3lyp_631Gdp/Gau-5724.inp -scrdir=/scr/macias/383311.qcexmaster_b3lyp_631Gdp/
 Entering Link 1 = /soft/g09.c01/g09/l1.exe PID=      5725.
  
 Copyright (c) 1988,1990,1992,1993,1995,1998,2003,2009,2011,
            Gaussian, Inc.  All Rights Reserved.
  
 This is part of the Gaussian(R) 09 program.  It is based on
 the Gaussian(R) 03 system (copyright 2003, Gaussian, Inc.),
 the Gaussian(R) 98 system (copyright 1998, Gaussian, Inc.),
 the Gaussian(R) 94 system (copyright 1995, Gaussian, Inc.),
 the Gaussian 92(TM) system (copyright 1992, Gaussian, Inc.),
 the Gaussian 90(TM) system (copyright 1990, Gaussian, Inc.),
 the Gaussian 88(TM) system (copyright 1988, Gaussian, Inc.),
 the Gaussian 86(TM) system (copyright 1986, Carnegie Mellon
 University), and the Gaussian 82(TM) system (copyright 1983,
 Carnegie Mellon University). Gaussian is a federally registered
 trademark of Gaussian, Inc.
  
 This software contains proprietary and confidential information,
 including trade secrets, belonging to Gaussian, Inc.
  
 This software is provided under written license and may be
 used, copied, transmitted, or stored only in accord with that
 written license.
  
 The following legend is applicable only to US Government
 contracts under FAR:
  
                    RESTRICTED RIGHTS LEGEND
  
 Use, reproduction and disclosure by the US Government is
 subject to restrictions as set forth in subparagraphs (a)
 and (c) of the Commercial Computer Software - Restricted
 Rights clause in FAR 52.227-19.
  
 Gaussian, Inc.
 340 Quinnipiac St., Bldg. 40, Wallingford CT 06492
  
  
 ---------------------------------------------------------------
 Warning -- This program may not be used in any manner that
 competes with the business of Gaussian, Inc. or will provide
 assistance to any competitor of Gaussian, Inc.  The licensee
 of this program is prohibited from giving any competitor of
 Gaussian, Inc. access to this program.  By using this program,
 the user acknowledges that Gaussian, Inc. is engaged in the
 business of creating and licensing software in the field of
 computational chemistry and represents and warrants to the
 licensee that it is not a competitor of Gaussian, Inc. and that
 it will not use this program in any manner prohibited above.
 ---------------------------------------------------------------
  

 Cite this work as:
 Gaussian 09, Revision C.01,
 M. J. Frisch, G. W. Trucks, H. B. Schlegel, G. E. Scuseria, 
 M. A. Robb, J. R. Cheeseman, G. Scalmani, V. Barone, B. Mennucci, 
 G. A. Petersson, H. Nakatsuji, M. Caricato, X. Li, H. P. Hratchian, 
 A. F. Izmaylov, J. Bloino, G. Zheng, J. L. Sonnenberg, M. Hada, 
 M. Ehara, K. Toyota, R. Fukuda, J. Hasegawa, M. Ishida, T. Nakajima, 
 Y. Honda, O. Kitao, H. Nakai, T. Vreven, J. A. Montgomery, Jr., 
 J. E. Peralta, F. Ogliaro, M. Bearpark, J. J. Heyd, E. Brothers, 
 K. N. Kudin, V. N. Staroverov, T. Keith, R. Kobayashi, J. Normand, 
 K. Raghavachari, A. Rendell, J. C. Burant, S. S. Iyengar, J. Tomasi, 
 M. Cossi, N. Rega, J. M. Millam, M. Klene, J. E. Knox, J. B. Cross, 
 V. Bakken, C. Adamo, J. Jaramillo, R. Gomperts, R. E. Stratmann, 
 O. Yazyev, A. J. Austin, R. Cammi, C. Pomelli, J. W. Ochterski, 
 R. L. Martin, K. Morokuma, V. G. Zakrzewski, G. A. Voth, 
 P. Salvador, J. J. Dannenberg, S. Dapprich, A. D. Daniels, 
 O. Farkas, J. B. Foresman, J. V. Ortiz, J. Cioslowski, 
 and D. J. Fox, Gaussian, Inc., Wallingford CT, 2010.
 
  
 -----  Compilado por  -----------------------------------------
  
  Servicio de Calculo | Servicio de Informatica U. de Valencia
     calculo@uv.es    |  E-46100 Burjassot (Valencia) SPAIN
  
 ---------------------------------------------------------------
  
 ******************************************
 Gaussian 09:  EM64L-G09RevC.01 23-Sep-2011
                 9-Jun-2025 
 ******************************************
 %chk=b3lyp_631Gdp.chk
 %nproc=6
 Will use up to    6 processors via shared memory.
 %mem=2GB
 Default route:  CacheSize=131072
 -------------------------------------------------
 #p gfinput iop(6/7=3) b3lyp/6-311+G(3df) opt freq
 -------------------------------------------------
 1/4=131072,14=-1,18=20,19=15,26=3,38=1/1,3;
 2/4=131072,9=110,12=2,17=6,18=5,40=1/2;
 3/4=131072,5=4,6=6,7=16,11=2,16=1,24=10,25=1,30=1,71=1,74=-5/1,2,3;
 4/4=131072/1;
 5/4=131072,5=2,38=5/2;
 6/4=131072,7=3,8=2,9=2,10=2,28=1/1;
 7/4=131072/1,2,3,16;
 1/4=131072,14=-1,18=20,19=15/3(2);
 2/4=131072,9=110/2;
 99/4=131072/99;
 2/4=131072,9=110/2;
 3/4=131072,5=4,6=6,7=16,11=2,16=1,25=1,30=1,71=1,74=-5/1,2,3;
 4/4=131072,5=5,16=3/1;
 5/4=131072,5=2,38=5/2;
 7/4=131072/1,2,3,16;
 1/4=131072,14=-1,18=20,19=15/3(-5);
 2/4=131072,9=110/2;
 6/4=131072,7=3,8=2,9=2,10=2,19=2,28=1/1;
 99/4=131072,9=1/99;
 Leave Link    1 at Mon Jun  9 15:31:17 2025, MaxMem=  268435456 cpu:       0.2
 (Enter /soft/g09.c01/g09/l101.exe)
 ------------
 b3lyp_631Gdp
 ------------
 Charge =  0 Multiplicity = 2
 Symbolic Z-Matrix:
 S                    -0.14317  -0.47768   0.01442 
 O                     1.32848   0.2561   -0.03946 
 O                    -1.19626   0.55127  -0.01789 
 H                     1.233     1.18386   0.22807 
 
 NAtoms=      4 NQM=        0 NQMF=       0 NMMI=      4 NMMIF=      0
                NMic=       0 NMicF=      0.
                    Isotopes and Nuclear Properties:
 (Nuclear quadrupole moments (NQMom) in fm**2, nuclear magnetic moments (NMagM)
  in nuclear magnetons)

  Atom         1           2           3           4
 IAtWgt=          32          16          16           1
 AtmWgt=  31.9720718  15.9949146  15.9949146   1.0078250
 NucSpn=           0           0           0           1
 AtZEff=   0.0000000   0.0000000   0.0000000   0.0000000
 NQMom=    0.0000000   0.0000000   0.0000000   0.0000000
 NMagM=    0.0000000   0.0000000   0.0000000   2.7928460
 Leave Link  101 at Mon Jun  9 15:31:17 2025, MaxMem=  268435456 cpu:       0.2
 (Enter /soft/g09.c01/g09/l103.exe)

 GradGradGradGradGradGradGradGradGradGradGradGradGradGradGradGradGradGrad
 Berny optimization.
 Initialization pass.
                           ----------------------------
                           !    Initial Parameters    !
                           ! (Angstroms and Degrees)  !
 --------------------------                            --------------------------
 ! Name  Definition              Value          Derivative Info.                !
 --------------------------------------------------------------------------------
 ! R1    R(1,2)                  1.6453         estimate D2E/DX2                !
 ! R2    R(1,3)                  1.4727         estimate D2E/DX2                !
 ! R3    R(2,4)                  0.9703         estimate D2E/DX2                !
 ! A1    A(2,1,3)              109.1043         estimate D2E/DX2                !
 ! A2    A(1,2,4)              109.2316         estimate D2E/DX2                !
 ! D1    D(3,1,2,4)             19.6564         estimate D2E/DX2                !
 --------------------------------------------------------------------------------
 Trust Radius=3.00D-01 FncErr=1.00D-07 GrdErr=1.00D-06
 Number of steps in this run=     20 maximum allowed number of steps=    100.
 GradGradGradGradGradGradGradGradGradGradGradGradGradGradGradGradGradGrad

 Leave Link  103 at Mon Jun  9 15:31:17 2025, MaxMem=  268435456 cpu:       0.0
 (Enter /soft/g09.c01/g09/l202.exe)
                          Input orientation:                          
 ---------------------------------------------------------------------
 Center     Atomic      Atomic             Coordinates (Angstroms)
 Number     Number       Type             X           Y           Z
 ---------------------------------------------------------------------
      1         16           0       -0.143170   -0.477675    0.014424
      2          8           0        1.328478    0.256100   -0.039462
      3          8           0       -1.196263    0.551268   -0.017893
      4          1           0        1.232996    1.183862    0.228065
 ---------------------------------------------------------------------
                    Distance matrix (angstroms):
                    1          2          3          4
     1  S    0.000000
     2  O    1.645320   0.000000
     3  O    1.472675   2.542028   0.000000
     4  H    2.167990   0.970273   2.522295   0.000000
 Stoichiometry    HO2S(2)
 Framework group  C1[X(HO2S)]
 Deg. of freedom     6
 Full point group                 C1      NOp   1
 Largest Abelian subgroup         C1      NOp   1
 Largest concise Abelian subgroup C1      NOp   1
                         Standard orientation:                         
 ---------------------------------------------------------------------
 Center     Atomic      Atomic             Coordinates (Angstroms)
 Number     Number       Type             X           Y           Z
 ---------------------------------------------------------------------
      1         16           0       -0.143170   -0.477675    0.014424
      2          8           0        1.328478    0.256099   -0.039462
      3          8           0       -1.196263    0.551268   -0.017893
      4          1           0        1.232997    1.183861    0.228065
 ---------------------------------------------------------------------
 Rotational constants (GHZ):     34.5493612      9.4602417      7.4444941
 Leave Link  202 at Mon Jun  9 15:31:17 2025, MaxMem=  268435456 cpu:       0.0
 (Enter /soft/g09.c01/g09/l301.exe)
 Standard basis: 6-311+G(3df) (5D, 7F)
 Ernie: Thresh=  0.10000D-02 Tol=  0.10000D-05 Strict=F.
 AO basis set in the form of general basis input (Overlap normalization):
      1 0
 S   6 1.00       0.000000000000
      0.9341340000D+05  0.7429999567D-03
      0.1396170000D+05  0.5792999662D-02
      0.3169910000D+04  0.2995399825D-01
      0.9024560000D+03  0.1190279931D+00
      0.2971580000D+03  0.3684319785D+00
      0.1087020000D+03  0.5772989663D+00
 S   3 1.00       0.000000000000
      0.1087020000D+03  0.1431860600D+00
      0.4315530000D+02  0.6244652619D+00
      0.1810790000D+02  0.2833661188D+00
 S   1 1.00       0.000000000000
      0.5560090000D+01  0.1000000000D+01
 S   1 1.00       0.000000000000
      0.2131830000D+01  0.1000000000D+01
 S   1 1.00       0.000000000000
      0.4204030000D+00  0.1000000000D+01
 S   1 1.00       0.000000000000
      0.1360450000D+00  0.1000000000D+01
 SP   1 1.00       0.000000000000
      0.4050000000D-01  0.1000000000D+01  0.1000000000D+01
 P   4 1.00       0.000000000000
      0.4950400000D+03  0.8309002513D-02
      0.1172210000D+03  0.6402401937D-01
      0.3777490000D+02  0.2776140840D+00
      0.1405840000D+02  0.7450762254D+00
 P   2 1.00       0.000000000000
      0.5565740000D+01  0.6137116720D+00
      0.2262970000D+01  0.4438177628D+00
 P   1 1.00       0.000000000000
      0.8079940000D+00  0.1000000000D+01
 P   1 1.00       0.000000000000
      0.2774600000D+00  0.1000000000D+01
 P   1 1.00       0.000000000000
      0.7714100000D-01  0.1000000000D+01
 D   1 1.00       0.000000000000
      0.2600000000D+01  0.1000000000D+01
 D   1 1.00       0.000000000000
      0.6500000000D+00  0.1000000000D+01
 D   1 1.00       0.000000000000
      0.1625000000D+00  0.1000000000D+01
 F   1 1.00       0.000000000000
      0.5500000000D+00  0.1000000000D+01
 ****
      2 0
 S   6 1.00       0.000000000000
      0.8588500000D+04  0.1895150083D-02
      0.1297230000D+04  0.1438590063D-01
      0.2992960000D+03  0.7073200310D-01
      0.8737710000D+02  0.2400010105D+00
      0.2567890000D+02  0.5947970261D+00
      0.3740040000D+01  0.2808020123D+00
 SP   3 1.00       0.000000000000
      0.4211750000D+02  0.1138890124D+00  0.3651139738D-01
      0.9628370000D+01  0.9208111006D+00  0.2371529830D+00
      0.2853320000D+01 -0.3274470358D-02  0.8197019412D+00
 SP   1 1.00       0.000000000000
      0.9056610000D+00  0.1000000000D+01  0.1000000000D+01
 SP   1 1.00       0.000000000000
      0.2556110000D+00  0.1000000000D+01  0.1000000000D+01
 SP   1 1.00       0.000000000000
      0.8450000000D-01  0.1000000000D+01  0.1000000000D+01
 D   1 1.00       0.000000000000
      0.5168000000D+01  0.1000000000D+01
 D   1 1.00       0.000000000000
      0.1292000000D+01  0.1000000000D+01
 D   1 1.00       0.000000000000
      0.3230000000D+00  0.1000000000D+01
 F   1 1.00       0.000000000000
      0.1400000000D+01  0.1000000000D+01
 ****
      3 0
 S   6 1.00       0.000000000000
      0.8588500000D+04  0.1895150083D-02
      0.1297230000D+04  0.1438590063D-01
      0.2992960000D+03  0.7073200310D-01
      0.8737710000D+02  0.2400010105D+00
      0.2567890000D+02  0.5947970261D+00
      0.3740040000D+01  0.2808020123D+00
 SP   3 1.00       0.000000000000
      0.4211750000D+02  0.1138890124D+00  0.3651139738D-01
      0.9628370000D+01  0.9208111006D+00  0.2371529830D+00
      0.2853320000D+01 -0.3274470358D-02  0.8197019412D+00
 SP   1 1.00       0.000000000000
      0.9056610000D+00  0.1000000000D+01  0.1000000000D+01
 SP   1 1.00       0.000000000000
      0.2556110000D+00  0.1000000000D+01  0.1000000000D+01
 SP   1 1.00       0.000000000000
      0.8450000000D-01  0.1000000000D+01  0.1000000000D+01
 D   1 1.00       0.000000000000
      0.5168000000D+01  0.1000000000D+01
 D   1 1.00       0.000000000000
      0.1292000000D+01  0.1000000000D+01
 D   1 1.00       0.000000000000
      0.3230000000D+00  0.1000000000D+01
 F   1 1.00       0.000000000000
      0.1400000000D+01  0.1000000000D+01
 ****
      4 0
 S   3 1.00       0.000000000000
      0.3386500000D+02  0.2549381454D-01
      0.5094790000D+01  0.1903731086D+00
      0.1158790000D+01  0.8521614860D+00
 S   1 1.00       0.000000000000
      0.3258400000D+00  0.1000000000D+01
 S   1 1.00       0.000000000000
      0.1027410000D+00  0.1000000000D+01
 ****

 There are   128 symmetry adapted basis functions of A   symmetry.
 Integral buffers will be    131072 words long.
 Raffenetti 2 integral format.
 Two-electron integral symmetry is turned on.
   128 basis functions,   193 primitive gaussians,   146 cartesian basis functions
    17 alpha electrons       16 beta electrons
       nuclear repulsion energy       110.4322653004 Hartrees.
 IExCor=  402 DFT=T Ex+Corr=B3LYP ExCW=0 ScaHFX=  0.200000
 ScaDFX=  0.800000  0.720000  1.000000  0.810000 ScalE2=  1.000000  1.000000
 IRadAn=      0 IRanWt=     -1 IRanGd=            0 ICorTp=0
 NAtoms=    4 NActive=    4 NUniq=    4 SFac= 1.00D+00 NAtFMM=   60 NAOKFM=F Big=F
 Leave Link  301 at Mon Jun  9 15:31:17 2025, MaxMem=  268435456 cpu:       0.1
 (Enter /soft/g09.c01/g09/l302.exe)
 NPDir=0 NMtPBC=     1 NCelOv=     1 NCel=       1 NClECP=     1 NCelD=      1
         NCelK=      1 NCelE2=     1 NClLst=     1 CellRange=     0.0.
 One-electron integrals computed using PRISM.
 NBasis=   128 RedAO= T  NBF=   128
 NBsUse=   128 1.00D-06 NBFU=   128
 Precomputing XC quadrature grid using
 IXCGrd= 2 IRadAn=           0 IRanWt=          -1 IRanGd=           0 AccXCQ= 0.00D+00.
 NRdTot=     255 NPtTot=       32354 NUsed=       34204 NTot=       34236
 NSgBfM=   146   146   146   146   146 NAtAll=     4     4.
 Leave Link  302 at Mon Jun  9 15:31:17 2025, MaxMem=  268435456 cpu:       0.6
 (Enter /soft/g09.c01/g09/l303.exe)
 DipDrv:  MaxL=1.
 Leave Link  303 at Mon Jun  9 15:31:17 2025, MaxMem=  268435456 cpu:       0.1
 (Enter /soft/g09.c01/g09/l401.exe)
 Harris functional with IExCor=  402 diagonalized for initial guess.
 ExpMin= 4.05D-02 ExpMax= 9.34D+04 ExpMxC= 3.17D+03 IAcc=2 IRadAn=         4 AccDes= 0.00D+00
 HarFok:  IExCor=  402 AccDes= 0.00D+00 IRadAn=         4 IDoV= 1
 ScaDFX=  1.000000  1.000000  1.000000  1.000000
 FoFCou: FMM=F IPFlag=           0 FMFlag=      100000 FMFlg1=           0
         NFxFlg=           0 DoJE=T BraDBF=F KetDBF=T FulRan=T
         Omega=  0.000000  0.000000  1.000000  0.000000  0.000000 ICntrl=     500 IOpCl=  0
         NMat0=    1 NMatS0=    1 NMatT0=    0 NMatD0=    1 NMtDS0=    0 NMtDT0=    0
         I1Cent=           4 NGrid=           0.
 Petite list used in FoFCou.
 Harris En= -549.271328112891    
 Initial guess orbital symmetries:
 Alpha Orbitals:
       Occupied  (A) (A) (A) (A) (A) (A) (A) (A) (A) (A) (A) (A)
                 (A) (A) (A) (A) (A)
       Virtual   (A) (A) (A) (A) (A) (A) (A) (A) (A) (A) (A) (A)
                 (A) (A) (A) (A) (A) (A) (A) (A) (A) (A) (A) (A)
                 (A) (A) (A) (A) (A) (A) (A) (A) (A) (A) (A) (A)
                 (A) (A) (A) (A) (A) (A) (A) (A) (A) (A) (A) (A)
                 (A) (A) (A) (A) (A) (A) (A) (A) (A) (A) (A) (A)
                 (A) (A) (A) (A) (A) (A) (A) (A) (A) (A) (A) (A)
                 (A) (A) (A) (A) (A) (A) (A) (A) (A) (A) (A) (A)
                 (A) (A) (A) (A) (A) (A) (A) (A) (A) (A) (A) (A)
                 (A) (A) (A) (A) (A) (A) (A) (A) (A) (A) (A) (A)
                 (A) (A) (A)
 Beta  Orbitals:
       Occupied  (A) (A) (A) (A) (A) (A) (A) (A) (A) (A) (A) (A)
                 (A) (A) (A) (A)
       Virtual   (A) (A) (A) (A) (A) (A) (A) (A) (A) (A) (A) (A)
                 (A) (A) (A) (A) (A) (A) (A) (A) (A) (A) (A) (A)
                 (A) (A) (A) (A) (A) (A) (A) (A) (A) (A) (A) (A)
                 (A) (A) (A) (A) (A) (A) (A) (A) (A) (A) (A) (A)
                 (A) (A) (A) (A) (A) (A) (A) (A) (A) (A) (A) (A)
                 (A) (A) (A) (A) (A) (A) (A) (A) (A) (A) (A) (A)
                 (A) (A) (A) (A) (A) (A) (A) (A) (A) (A) (A) (A)
                 (A) (A) (A) (A) (A) (A) (A) (A) (A) (A) (A) (A)
                 (A) (A) (A) (A) (A) (A) (A) (A) (A) (A) (A) (A)
                 (A) (A) (A) (A)
 The electronic state of the initial guess is 2-A.
 Initial guess <Sx>= 0.0000 <Sy>= 0.0000 <Sz>= 0.5000 <S**2>= 0.7500 S= 0.5000
 Leave Link  401 at Mon Jun  9 15:31:17 2025, MaxMem=  268435456 cpu:       0.9
 (Enter /soft/g09.c01/g09/l502.exe)
 UHF open shell SCF:
 Requested convergence on RMS density matrix=1.00D-08 within 128 cycles.
 Requested convergence on MAX density matrix=1.00D-06.
 Requested convergence on             energy=1.00D-06.
 No special actions if energy rises.
 Using DIIS extrapolation, IDIIS=  1040.
 Integral symmetry usage will be decided dynamically.
        34155 words used for storage of precomputed grid.
 Keep R1 and R2 ints in memory in canonical form, NReq=117223287.
 IEnd=      118174 IEndB=      118174 NGot=   268435456 MDV=   153190265
 LenX=   153190265 LenY=   153168508
 Symmetry not used in FoFDir.
 MinBra= 0 MaxBra= 3 Meth= 1.
 IRaf=       0 NMat=   1 IRICut=       1 DoRegI=T DoRafI=F ISym2E= 0 JSym2E=0.

 Cycle   1  Pass 1  IDiag  1:
 E= -549.115568291136    
 DIIS: error= 4.06D-02 at cycle   1 NSaved=   1.
 NSaved= 1 IEnMin= 1 EnMin= -549.115568291136     IErMin= 1 ErrMin= 4.06D-02
 ErrMax= 4.06D-02 EMaxC= 1.00D-01 BMatC= 1.10D+00 BMatP= 1.10D+00
 IDIUse=3 WtCom= 5.94D-01 WtEn= 4.06D-01
 Coeff-Com:  0.100D+01
 Coeff-En:   0.100D+01
 Coeff:      0.100D+01
 Gap=     0.231 Goal=   None    Shift=    0.000
 Gap=     0.139 Goal=   None    Shift=    0.000
 GapD=    0.139 DampG=1.000 DampE=0.500 DampFc=0.5000 IDamp=-1.
 Damping current iteration by 5.00D-01
 RMSDP=6.55D-03 MaxDP=2.12D-01              OVMax= 4.35D-01

 Cycle   2  Pass 1  IDiag  1:
 E= -549.058288623173     Delta-E=        0.057279667963 Rises=F Damp=T
 DIIS: error= 2.67D-02 at cycle   2 NSaved=   2.
 NSaved= 2 IEnMin= 1 EnMin= -549.115568291136     IErMin= 2 ErrMin= 2.67D-02
 ErrMax= 2.67D-02 EMaxC= 1.00D-01 BMatC= 4.16D-01 BMatP= 1.10D+00
 IDIUse=3 WtCom= 7.33D-01 WtEn= 2.67D-01
 Coeff-Com:  0.363D+00 0.637D+00
 Coeff-En:   0.586D+00 0.414D+00
 Coeff:      0.422D+00 0.578D+00
 Gap=     0.240 Goal=   None    Shift=    0.000
 Gap=     0.168 Goal=   None    Shift=    0.000
 RMSDP=2.13D-03 MaxDP=5.32D-02 DE= 5.73D-02 OVMax= 3.42D-01

 Cycle   3  Pass 1  IDiag  1:
 E= -549.262405619706     Delta-E=       -0.204116996533 Rises=F Damp=F
 DIIS: error= 2.03D-02 at cycle   3 NSaved=   3.
 NSaved= 3 IEnMin= 3 EnMin= -549.262405619706     IErMin= 3 ErrMin= 2.03D-02
 ErrMax= 2.03D-02 EMaxC= 1.00D-01 BMatC= 1.66D-01 BMatP= 4.16D-01
 IDIUse=3 WtCom= 7.97D-01 WtEn= 2.03D-01
 Coeff-Com:  0.215D+00 0.382D+00 0.402D+00
 Coeff-En:   0.000D+00 0.000D+00 0.100D+01
 Coeff:      0.172D+00 0.305D+00 0.524D+00
 Gap=     0.205 Goal=   None    Shift=    0.000
 Gap=     0.220 Goal=   None    Shift=    0.000
 RMSDP=1.37D-03 MaxDP=3.62D-02 DE=-2.04D-01 OVMax= 1.27D-01

 Cycle   4  Pass 1  IDiag  1:
 E= -549.277678384445     Delta-E=       -0.015272764739 Rises=F Damp=F
 DIIS: error= 1.26D-02 at cycle   4 NSaved=   4.
 NSaved= 4 IEnMin= 4 EnMin= -549.277678384445     IErMin= 4 ErrMin= 1.26D-02
 ErrMax= 1.26D-02 EMaxC= 1.00D-01 BMatC= 8.97D-02 BMatP= 1.66D-01
 IDIUse=3 WtCom= 8.74D-01 WtEn= 1.26D-01
 Coeff-Com:  0.281D-01 0.544D-01 0.407D+00 0.511D+00
 Coeff-En:   0.000D+00 0.000D+00 0.380D+00 0.620D+00
 Coeff:      0.246D-01 0.476D-01 0.403D+00 0.524D+00
 Gap=     0.205 Goal=   None    Shift=    0.000
 Gap=     0.214 Goal=   None    Shift=    0.000
 RMSDP=6.10D-04 MaxDP=1.81D-02 DE=-1.53D-02 OVMax= 4.53D-02

 Cycle   5  Pass 1  IDiag  1:
 E= -549.293700939937     Delta-E=       -0.016022555492 Rises=F Damp=F
 DIIS: error= 1.15D-03 at cycle   5 NSaved=   5.
 NSaved= 5 IEnMin= 5 EnMin= -549.293700939937     IErMin= 5 ErrMin= 1.15D-03
 ErrMax= 1.15D-03 EMaxC= 1.00D-01 BMatC= 6.69D-04 BMatP= 8.97D-02
 IDIUse=3 WtCom= 9.88D-01 WtEn= 1.15D-02
 Coeff-Com: -0.204D-02-0.151D-01 0.103D+00 0.163D+00 0.751D+00
 Coeff-En:   0.000D+00 0.000D+00 0.000D+00 0.000D+00 0.100D+01
 Coeff:     -0.202D-02-0.149D-01 0.102D+00 0.161D+00 0.753D+00
 Gap=     0.206 Goal=   None    Shift=    0.000
 Gap=     0.216 Goal=   None    Shift=    0.000
 RMSDP=7.80D-05 MaxDP=1.69D-03 DE=-1.60D-02 OVMax= 6.61D-03

 Cycle   6  Pass 1  IDiag  1:
 E= -549.293828270641     Delta-E=       -0.000127330705 Rises=F Damp=F
 DIIS: error= 5.16D-04 at cycle   6 NSaved=   6.
 NSaved= 6 IEnMin= 6 EnMin= -549.293828270641     IErMin= 6 ErrMin= 5.16D-04
 ErrMax= 5.16D-04 EMaxC= 1.00D-01 BMatC= 1.12D-04 BMatP= 6.69D-04
 IDIUse=3 WtCom= 9.95D-01 WtEn= 5.16D-03
 Coeff-Com:  0.118D-02-0.106D-01-0.364D-02-0.148D-01 0.144D+00 0.884D+00
 Coeff-En:   0.000D+00 0.000D+00 0.000D+00 0.000D+00 0.000D+00 0.100D+01
 Coeff:      0.118D-02-0.106D-01-0.362D-02-0.147D-01 0.143D+00 0.884D+00
 Gap=     0.206 Goal=   None    Shift=    0.000
 Gap=     0.217 Goal=   None    Shift=    0.000
 RMSDP=3.72D-05 MaxDP=1.51D-03 DE=-1.27D-04 OVMax= 2.41D-03

 Cycle   7  Pass 1  IDiag  1:
 E= -549.293857116753     Delta-E=       -0.000028846112 Rises=F Damp=F
 DIIS: error= 1.43D-04 at cycle   7 NSaved=   7.
 NSaved= 7 IEnMin= 7 EnMin= -549.293857116753     IErMin= 7 ErrMin= 1.43D-04
 ErrMax= 1.43D-04 EMaxC= 1.00D-01 BMatC= 7.73D-06 BMatP= 1.12D-04
 IDIUse=3 WtCom= 9.99D-01 WtEn= 1.43D-03
 Coeff-Com:  0.837D-03-0.100D-02-0.618D-02-0.146D-01-0.674D-01 0.707D-01
 Coeff-Com:  0.102D+01
 Coeff-En:   0.000D+00 0.000D+00 0.000D+00 0.000D+00 0.000D+00 0.000D+00
 Coeff-En:   0.100D+01
 Coeff:      0.836D-03-0.999D-03-0.617D-02-0.146D-01-0.673D-01 0.706D-01
 Coeff:      0.102D+01
 Gap=     0.206 Goal=   None    Shift=    0.000
 Gap=     0.217 Goal=   None    Shift=    0.000
 RMSDP=1.46D-05 MaxDP=4.41D-04 DE=-2.88D-05 OVMax= 1.50D-03

 Cycle   8  Pass 1  IDiag  1:
 E= -549.293860148676     Delta-E=       -0.000003031923 Rises=F Damp=F
 DIIS: error= 4.18D-05 at cycle   8 NSaved=   8.
 NSaved= 8 IEnMin= 8 EnMin= -549.293860148676     IErMin= 8 ErrMin= 4.18D-05
 ErrMax= 4.18D-05 EMaxC= 1.00D-01 BMatC= 1.26D-06 BMatP= 7.73D-06
 IDIUse=1 WtCom= 1.00D+00 WtEn= 0.00D+00
 Coeff-Com:  0.256D-03 0.542D-03-0.188D-02-0.411D-02-0.399D-01-0.889D-01
 Coeff-Com:  0.362D+00 0.772D+00
 Coeff:      0.256D-03 0.542D-03-0.188D-02-0.411D-02-0.399D-01-0.889D-01
 Coeff:      0.362D+00 0.772D+00
 Gap=     0.206 Goal=   None    Shift=    0.000
 Gap=     0.217 Goal=   None    Shift=    0.000
 RMSDP=5.57D-06 MaxDP=1.87D-04 DE=-3.03D-06 OVMax= 5.77D-04

 Cycle   9  Pass 1  IDiag  1:
 E= -549.293860597456     Delta-E=       -0.000000448781 Rises=F Damp=F
 DIIS: error= 1.78D-05 at cycle   9 NSaved=   9.
 NSaved= 9 IEnMin= 9 EnMin= -549.293860597456     IErMin= 9 ErrMin= 1.78D-05
 ErrMax= 1.78D-05 EMaxC= 1.00D-01 BMatC= 9.72D-08 BMatP= 1.26D-06
 IDIUse=1 WtCom= 1.00D+00 WtEn= 0.00D+00
 Coeff-Com: -0.447D-04 0.597D-04 0.918D-03 0.152D-02 0.640D-02-0.260D-01
 Coeff-Com: -0.835D-01 0.335D-01 0.107D+01
 Coeff:     -0.447D-04 0.597D-04 0.918D-03 0.152D-02 0.640D-02-0.260D-01
 Coeff:     -0.835D-01 0.335D-01 0.107D+01
 Gap=     0.206 Goal=   None    Shift=    0.000
 Gap=     0.217 Goal=   None    Shift=    0.000
 RMSDP=2.01D-06 MaxDP=6.77D-05 DE=-4.49D-07 OVMax= 2.04D-04

 Cycle  10  Pass 1  IDiag  1:
 E= -549.293860643963     Delta-E=       -0.000000046506 Rises=F Damp=F
 DIIS: error= 3.88D-06 at cycle  10 NSaved=  10.
 NSaved=10 IEnMin=10 EnMin= -549.293860643963     IErMin=10 ErrMin= 3.88D-06
 ErrMax= 3.88D-06 EMaxC= 1.00D-01 BMatC= 5.77D-09 BMatP= 9.72D-08
 IDIUse=1 WtCom= 1.00D+00 WtEn= 0.00D+00
 Coeff-Com:  0.943D-05-0.440D-04 0.212D-03 0.285D-03 0.236D-02 0.394D-02
 Coeff-Com: -0.309D-01-0.390D-01 0.604D-01 0.100D+01
 Coeff:      0.943D-05-0.440D-04 0.212D-03 0.285D-03 0.236D-02 0.394D-02
 Coeff:     -0.309D-01-0.390D-01 0.604D-01 0.100D+01
 Gap=     0.206 Goal=   None    Shift=    0.000
 Gap=     0.217 Goal=   None    Shift=    0.000
 RMSDP=4.81D-07 MaxDP=1.22D-05 DE=-4.65D-08 OVMax= 4.35D-05

 Cycle  11  Pass 1  IDiag  1:
 E= -549.293860646413     Delta-E=       -0.000000002451 Rises=F Damp=F
 DIIS: error= 6.87D-07 at cycle  11 NSaved=  11.
 NSaved=11 IEnMin=11 EnMin= -549.293860646413     IErMin=11 ErrMin= 6.87D-07
 ErrMax= 6.87D-07 EMaxC= 1.00D-01 BMatC= 4.81D-10 BMatP= 5.77D-09
 IDIUse=1 WtCom= 1.00D+00 WtEn= 0.00D+00
 Coeff-Com:  0.894D-05-0.175D-04-0.134D-04-0.477D-04-0.112D-03 0.329D-02
 Coeff-Com:  0.357D-03-0.104D-01-0.808D-01 0.244D+00 0.844D+00
 Coeff:      0.894D-05-0.175D-04-0.134D-04-0.477D-04-0.112D-03 0.329D-02
 Coeff:      0.357D-03-0.104D-01-0.808D-01 0.244D+00 0.844D+00
 Gap=     0.206 Goal=   None    Shift=    0.000
 Gap=     0.217 Goal=   None    Shift=    0.000
 RMSDP=1.32D-07 MaxDP=3.42D-06 DE=-2.45D-09 OVMax= 1.08D-05

 Cycle  12  Pass 1  IDiag  1:
 E= -549.293860646608     Delta-E=       -0.000000000194 Rises=F Damp=F
 DIIS: error= 3.26D-07 at cycle  12 NSaved=  12.
 NSaved=12 IEnMin=12 EnMin= -549.293860646608     IErMin=12 ErrMin= 3.26D-07
 ErrMax= 3.26D-07 EMaxC= 1.00D-01 BMatC= 6.01D-11 BMatP= 4.81D-10
 IDIUse=1 WtCom= 1.00D+00 WtEn= 0.00D+00
 Coeff-Com: -0.107D-05 0.329D-05-0.315D-04-0.358D-04-0.286D-03-0.387D-05
 Coeff-Com:  0.415D-02 0.275D-02-0.175D-01-0.101D+00 0.123D+00 0.989D+00
 Coeff:     -0.107D-05 0.329D-05-0.315D-04-0.358D-04-0.286D-03-0.387D-05
 Coeff:      0.415D-02 0.275D-02-0.175D-01-0.101D+00 0.123D+00 0.989D+00
 Gap=     0.206 Goal=   None    Shift=    0.000
 Gap=     0.217 Goal=   None    Shift=    0.000
 RMSDP=5.57D-08 MaxDP=1.33D-06 DE=-1.94D-10 OVMax= 4.99D-06

 Cycle  13  Pass 1  IDiag  1:
 E= -549.293860646638     Delta-E=       -0.000000000031 Rises=F Damp=F
 DIIS: error= 9.09D-08 at cycle  13 NSaved=  13.
 NSaved=13 IEnMin=13 EnMin= -549.293860646638     IErMin=13 ErrMin= 9.09D-08
 ErrMax= 9.09D-08 EMaxC= 1.00D-01 BMatC= 4.33D-12 BMatP= 6.01D-11
 IDIUse=1 WtCom= 1.00D+00 WtEn= 0.00D+00
 Coeff-Com: -0.133D-05 0.254D-05-0.476D-05-0.397D-05-0.157D-04-0.300D-03
 Coeff-Com:  0.473D-03 0.113D-02 0.532D-02-0.318D-01-0.652D-01 0.728D-01
 Coeff-Com:  0.102D+01
 Coeff:     -0.133D-05 0.254D-05-0.476D-05-0.397D-05-0.157D-04-0.300D-03
 Coeff:      0.473D-03 0.113D-02 0.532D-02-0.318D-01-0.652D-01 0.728D-01
 Coeff:      0.102D+01
 Gap=     0.206 Goal=   None    Shift=    0.000
 Gap=     0.217 Goal=   None    Shift=    0.000
 RMSDP=1.56D-08 MaxDP=3.11D-07 DE=-3.07D-11 OVMax= 1.28D-06

 Cycle  14  Pass 1  IDiag  1:
 E= -549.293860646639     Delta-E=       -0.000000000001 Rises=F Damp=F
 DIIS: error= 2.45D-08 at cycle  14 NSaved=  14.
 NSaved=14 IEnMin=14 EnMin= -549.293860646639     IErMin=14 ErrMin= 2.45D-08
 ErrMax= 2.45D-08 EMaxC= 1.00D-01 BMatC= 4.97D-13 BMatP= 4.33D-12
 IDIUse=1 WtCom= 1.00D+00 WtEn= 0.00D+00
 Coeff-Com: -0.343D-06 0.660D-06 0.273D-06 0.597D-07 0.904D-05-0.897D-04
 Coeff-Com: -0.988D-04 0.262D-03 0.234D-02-0.254D-02-0.265D-01-0.472D-01
 Coeff-Com:  0.309D+00 0.765D+00
 Coeff:     -0.343D-06 0.660D-06 0.273D-06 0.597D-07 0.904D-05-0.897D-04
 Coeff:     -0.988D-04 0.262D-03 0.234D-02-0.254D-02-0.265D-01-0.472D-01
 Coeff:      0.309D+00 0.765D+00
 Gap=     0.206 Goal=   None    Shift=    0.000
 Gap=     0.217 Goal=   None    Shift=    0.000
 RMSDP=3.39D-09 MaxDP=9.43D-08 DE=-9.09D-13 OVMax= 1.77D-07

 SCF Done:  E(UB3LYP) =  -549.293860647     A.U. after   14 cycles
             Convg  =    0.3392D-08             -V/T =  2.0018
 <Sx>= 0.0000 <Sy>= 0.0000 <Sz>= 0.5000 <S**2>= 0.7552 S= 0.5026
 <L.S>= 0.000000000000E+00
 KE= 5.482950069215D+02 PE=-1.524818619708D+03 EE= 3.167974868394D+02
 Annihilation of the first spin contaminant:
 S**2 before annihilation     0.7552,   after     0.7500
 Leave Link  502 at Mon Jun  9 15:31:21 2025, MaxMem=  268435456 cpu:      22.5
 (Enter /soft/g09.c01/g09/l601.exe)
 Copying SCF densities to generalized density rwf, IOpCl= 1 IROHF=0.

 **********************************************************************

            Population analysis using the SCF density.

 **********************************************************************

 Orbital symmetries:
 Alpha Orbitals:
       Occupied  (A) (A) (A) (A) (A) (A) (A) (A) (A) (A) (A) (A)
                 (A) (A) (A) (A) (A)
       Virtual   (A) (A) (A) (A) (A) (A) (A) (A) (A) (A) (A) (A)
                 (A) (A) (A) (A) (A) (A) (A) (A) (A) (A) (A) (A)
                 (A) (A) (A) (A) (A) (A) (A) (A) (A) (A) (A) (A)
                 (A) (A) (A) (A) (A) (A) (A) (A) (A) (A) (A) (A)
                 (A) (A) (A) (A) (A) (A) (A) (A) (A) (A) (A) (A)
                 (A) (A) (A) (A) (A) (A) (A) (A) (A) (A) (A) (A)
                 (A) (A) (A) (A) (A) (A) (A) (A) (A) (A) (A) (A)
                 (A) (A) (A) (A) (A) (A) (A) (A) (A) (A) (A) (A)
                 (A) (A) (A) (A) (A) (A) (A) (A) (A) (A) (A) (A)
                 (A) (A) (A)
 Beta  Orbitals:
       Occupied  (A) (A) (A) (A) (A) (A) (A) (A) (A) (A) (A) (A)
                 (A) (A) (A) (A)
       Virtual   (A) (A) (A) (A) (A) (A) (A) (A) (A) (A) (A) (A)
                 (A) (A) (A) (A) (A) (A) (A) (A) (A) (A) (A) (A)
                 (A) (A) (A) (A) (A) (A) (A) (A) (A) (A) (A) (A)
                 (A) (A) (A) (A) (A) (A) (A) (A) (A) (A) (A) (A)
                 (A) (A) (A) (A) (A) (A) (A) (A) (A) (A) (A) (A)
                 (A) (A) (A) (A) (A) (A) (A) (A) (A) (A) (A) (A)
                 (A) (A) (A) (A) (A) (A) (A) (A) (A) (A) (A) (A)
                 (A) (A) (A) (A) (A) (A) (A) (A) (A) (A) (A) (A)
                 (A) (A) (A) (A) (A) (A) (A) (A) (A) (A) (A) (A)
                 (A) (A) (A) (A)
 The electronic state is 2-A.
 Alpha  occ. eigenvalues --  -88.98443 -19.19423 -19.16419  -8.05746  -6.02136
 Alpha  occ. eigenvalues --   -6.01897  -6.01563  -1.11767  -1.04783  -0.70644
 Alpha  occ. eigenvalues --   -0.54455  -0.48263  -0.47475  -0.42267  -0.38673
 Alpha  occ. eigenvalues --   -0.34466  -0.23493
 Alpha virt. eigenvalues --   -0.02892  -0.00180   0.01522   0.03863   0.04725
 Alpha virt. eigenvalues --    0.07646   0.11696   0.14811   0.16492   0.17116
 Alpha virt. eigenvalues --    0.18528   0.20543   0.23002   0.24741   0.25331
 Alpha virt. eigenvalues --    0.28086   0.28668   0.29990   0.31018   0.32177
 Alpha virt. eigenvalues --    0.33140   0.42004   0.48385   0.59611   0.69998
 Alpha virt. eigenvalues --    0.72868   0.78719   0.79358   0.85497   0.87901
 Alpha virt. eigenvalues --    0.88483   0.88939   0.91352   0.93286   0.96514
 Alpha virt. eigenvalues --    1.00264   1.01075   1.03298   1.05005   1.07650
 Alpha virt. eigenvalues --    1.12287   1.18618   1.23538   1.29183   1.30582
 Alpha virt. eigenvalues --    1.33740   1.57167   1.58744   1.64877   1.71341
 Alpha virt. eigenvalues --    1.82871   1.92514   1.97249   1.99282   2.03162
 Alpha virt. eigenvalues --    2.10706   2.21968   2.25861   2.35136   3.28252
 Alpha virt. eigenvalues --    3.32677   3.36055   3.38735   3.40876   3.45812
 Alpha virt. eigenvalues --    3.47070   3.54416   3.60072   3.61483   4.42817
 Alpha virt. eigenvalues --    4.46347   4.50330   4.58630   4.79300   4.88726
 Alpha virt. eigenvalues --    4.92480   4.93901   4.94762   4.96345   4.97293
 Alpha virt. eigenvalues --    4.99734   5.01035   5.05384   5.12958   5.14285
 Alpha virt. eigenvalues --    5.30986   5.34707   5.41547   5.45915   5.55489
 Alpha virt. eigenvalues --    5.61159   5.73720   5.88331   6.44432   8.62313
 Alpha virt. eigenvalues --   14.18923  14.21869  14.23417  14.25880  14.27781
 Alpha virt. eigenvalues --   14.31861  14.33471  14.36101  14.48129  14.57659
 Alpha virt. eigenvalues --   17.21734  17.46420  17.73102  49.88118  49.96122
 Alpha virt. eigenvalues --  189.58336
  Beta  occ. eigenvalues --  -88.98051 -19.19133 -19.15412  -8.05388  -6.01926
  Beta  occ. eigenvalues --   -6.01380  -6.00636  -1.10676  -1.03398  -0.68583
  Beta  occ. eigenvalues --   -0.53318  -0.47553  -0.44097  -0.40557  -0.35252
  Beta  occ. eigenvalues --   -0.33427
  Beta virt. eigenvalues --   -0.11736  -0.02292   0.00237   0.02076   0.04365
  Beta virt. eigenvalues --    0.05115   0.07844   0.11910   0.15102   0.16886
  Beta virt. eigenvalues --    0.17375   0.19081   0.20832   0.23295   0.24816
  Beta virt. eigenvalues --    0.26541   0.28476   0.29297   0.31020   0.32548
  Beta virt. eigenvalues --    0.32829   0.33586   0.42689   0.48546   0.60047
  Beta virt. eigenvalues --    0.70579   0.73238   0.79572   0.80047   0.86423
  Beta virt. eigenvalues --    0.88270   0.89590   0.90329   0.92348   0.94197
  Beta virt. eigenvalues --    0.97403   1.01064   1.03142   1.03802   1.05291
  Beta virt. eigenvalues --    1.08335   1.13601   1.19034   1.24965   1.29916
  Beta virt. eigenvalues --    1.30954   1.34086   1.60474   1.60695   1.66468
  Beta virt. eigenvalues --    1.72953   1.83708   1.94074   1.98041   2.01747
  Beta virt. eigenvalues --    2.03255   2.11117   2.22439   2.26723   2.35621
  Beta virt. eigenvalues --    3.29245   3.34215   3.38508   3.39765   3.42264
  Beta virt. eigenvalues --    3.47459   3.48553   3.55107   3.61056   3.61885
  Beta virt. eigenvalues --    4.43596   4.46504   4.51366   4.59181   4.79932
  Beta virt. eigenvalues --    4.89455   4.93540   4.94576   4.95425   4.97407
  Beta virt. eigenvalues --    5.01332   5.01996   5.02838   5.06164   5.13915
  Beta virt. eigenvalues --    5.15679   5.31622   5.35239   5.42432   5.46736
  Beta virt. eigenvalues --    5.56432   5.61605   5.75539   5.88856   6.44850
  Beta virt. eigenvalues --    8.62806  14.20269  14.24243  14.26764  14.27475
  Beta virt. eigenvalues --   14.29862  14.33903  14.35485  14.37120  14.48555
  Beta virt. eigenvalues --   14.59404  17.23402  17.46708  17.73405  49.88434
  Beta virt. eigenvalues --   49.97093 189.58691
     Alpha Molecular Orbital Coefficients:
                           1         2         3         4         5
                           O         O         O         O         O
     Eigenvalues --   -88.98443 -19.19423 -19.16419  -8.05746  -6.02136
   1 1   S  1S          0.41089   0.00000   0.00000  -0.11967   0.00049
   2        2S          0.65435  -0.00002  -0.00002  -0.32038   0.00134
   3        3S          0.01548   0.00016   0.00020   0.51909  -0.00246
   4        4S         -0.00485  -0.00040  -0.00057   0.58968  -0.00203
   5        5S          0.00230  -0.00028   0.00147   0.06038   0.00054
   6        6S          0.00078   0.00894   0.01180  -0.00970  -0.00376
   7        7S          0.00011   0.00022   0.00058  -0.00092  -0.00086
   8        7PX         0.00001  -0.00130   0.00099  -0.00007  -0.00005
   9        7PY         0.00010  -0.00072  -0.00118   0.00206  -0.00044
  10        7PZ        -0.00001   0.00006   0.00004  -0.00013   0.00006
  11        8PX         0.00001  -0.00001   0.00001   0.00069   0.37177
  12        8PY         0.00012  -0.00001  -0.00002   0.00323   0.06649
  13        8PZ         0.00000   0.00000   0.00000  -0.00012  -0.01855
  14        9PX         0.00002   0.00004  -0.00002   0.00170   0.69513
  15        9PY        -0.00005   0.00006   0.00005   0.00715   0.12442
  16        9PZ         0.00000   0.00000   0.00000  -0.00029  -0.03462
  17       10PX        -0.00002  -0.00053   0.00006   0.00013   0.05995
  18       10PY        -0.00004  -0.00042  -0.00024  -0.00007   0.01052
  19       10PZ         0.00000   0.00002   0.00001   0.00003  -0.00291
  20       11PX        -0.00041   0.00494  -0.00486  -0.00305  -0.01285
  21       11PY         0.00122   0.00299   0.00530   0.01242  -0.00253
  22       11PZ        -0.00006  -0.00018  -0.00017  -0.00056   0.00052
  23       12PX        -0.00020   0.00396  -0.00325  -0.00064  -0.00527
  24       12PY        -0.00004   0.00198   0.00370  -0.00534   0.00027
  25       12PZ        -0.00001  -0.00020  -0.00013  -0.00004  -0.00017
  26       13D 0        0.00007   0.00008   0.00002   0.00023  -0.00037
  27       13D+1        0.00000   0.00001   0.00000  -0.00001  -0.00008
  28       13D-1        0.00000   0.00000   0.00000   0.00001  -0.00008
  29       13D+2       -0.00002  -0.00005   0.00001   0.00019   0.00009
  30       13D-2        0.00004  -0.00011   0.00002   0.00047   0.00132
  31       14D 0       -0.00030  -0.00056  -0.00046  -0.00281   0.00024
  32       14D+1        0.00000  -0.00005   0.00002   0.00000  -0.00001
  33       14D-1       -0.00002  -0.00003  -0.00003  -0.00016   0.00004
  34       14D+2        0.00009   0.00046  -0.00002   0.00104   0.00013
  35       14D-2       -0.00021   0.00074  -0.00075  -0.00166   0.00038
  36       15D 0       -0.00018  -0.00148  -0.00146  -0.00124   0.00071
  37       15D+1        0.00000  -0.00018   0.00006  -0.00004   0.00018
  38       15D-1       -0.00002  -0.00006  -0.00009  -0.00017   0.00009
  39       15D+2        0.00003   0.00097  -0.00039   0.00024  -0.00070
  40       15D-2       -0.00018   0.00197  -0.00212  -0.00128  -0.00428
  41       16F 0        0.00001   0.00002   0.00000   0.00011  -0.00004
  42       16F+1        0.00003  -0.00019  -0.00014   0.00018   0.00036
  43       16F-1       -0.00008  -0.00015   0.00006  -0.00096   0.00019
  44       16F+2        0.00000  -0.00001   0.00001   0.00000   0.00000
  45       16F-2        0.00000  -0.00001  -0.00002  -0.00001   0.00002
  46       16F+3        0.00009   0.00008  -0.00030   0.00093  -0.00008
  47       16F-3        0.00013   0.00004  -0.00022   0.00157  -0.00009
  48 2   O  1S          0.00000   0.55128   0.00000  -0.00003  -0.00007
  49        2S         -0.00002   0.46973  -0.00002  -0.00011  -0.00008
  50        2PX        -0.00002  -0.00086   0.00001  -0.00023  -0.00019
  51        2PY         0.00000   0.00067   0.00002  -0.00007  -0.00009
  52        2PZ         0.00000   0.00034   0.00000   0.00001   0.00001
  53        3S          0.00016   0.01443   0.00013   0.00179  -0.00030
  54        3PX        -0.00001  -0.00040  -0.00007   0.00011  -0.00015
  55        3PY        -0.00003  -0.00044  -0.00005  -0.00019  -0.00011
  56        3PZ         0.00000  -0.00007   0.00001  -0.00004   0.00000
  57        4S         -0.00045  -0.01373  -0.00037  -0.00494   0.00532
  58        4PX         0.00050   0.00538   0.00051   0.00545  -0.00398
  59        4PY         0.00037   0.00196  -0.00036   0.00396  -0.00160
  60        4PZ         0.00002  -0.00030  -0.00003   0.00021   0.00015
  61        5S          0.00016  -0.00103   0.00005   0.00619   0.01002
  62        5PX        -0.00012   0.00095   0.00005  -0.00274  -0.00264
  63        5PY         0.00001   0.00105   0.00010   0.00053  -0.00018
  64        5PZ         0.00003   0.00012   0.00004   0.00063   0.00039
  65        6D 0       -0.00001   0.00001   0.00000  -0.00006  -0.00002
  66        6D+1        0.00000  -0.00001   0.00000  -0.00001   0.00000
  67        6D-1        0.00000   0.00001   0.00000   0.00001   0.00000
  68        6D+2        0.00001  -0.00003   0.00001   0.00004   0.00003
  69        6D-2        0.00001   0.00003  -0.00001   0.00007   0.00004
  70        7D 0        0.00002  -0.00006  -0.00002   0.00029  -0.00001
  71        7D+1        0.00000  -0.00001   0.00000   0.00005   0.00001
  72        7D-1       -0.00001   0.00003   0.00000  -0.00005  -0.00002
  73        7D+2       -0.00001   0.00001  -0.00005  -0.00014  -0.00003
  74        7D-2       -0.00002   0.00006   0.00006  -0.00027  -0.00002
  75        8D 0        0.00011   0.00124   0.00012   0.00130  -0.00033
  76        8D+1        0.00001   0.00013   0.00000   0.00004  -0.00006
  77        8D-1        0.00005  -0.00010  -0.00003   0.00055   0.00007
  78        8D+2       -0.00024  -0.00100  -0.00012  -0.00284   0.00045
  79        8D-2       -0.00022  -0.00144   0.00026  -0.00249   0.00059
  80        9F 0        0.00000   0.00001   0.00000  -0.00001   0.00001
  81        9F+1       -0.00004  -0.00014   0.00000  -0.00034  -0.00013
  82        9F-1       -0.00003  -0.00007   0.00002  -0.00020  -0.00006
  83        9F+2       -0.00001  -0.00002   0.00001  -0.00007  -0.00001
  84        9F-2       -0.00001  -0.00001   0.00001  -0.00004  -0.00001
  85        9F+3        0.00002   0.00004   0.00008   0.00015   0.00004
  86        9F-3        0.00006   0.00017  -0.00005   0.00047   0.00016
  87 3   O  1S          0.00001   0.00001   0.55117  -0.00008   0.00014
  88        2S         -0.00002  -0.00001   0.46975  -0.00017   0.00017
  89        2PX         0.00004   0.00000   0.00085   0.00029  -0.00014
  90        2PY        -0.00004   0.00003  -0.00075  -0.00028   0.00022
  91        2PZ         0.00000   0.00000   0.00003   0.00001  -0.00001
  92        3S          0.00030   0.00014   0.01498   0.00263  -0.00042
  93        3PX        -0.00010   0.00003   0.00043  -0.00079  -0.00020
  94        3PY         0.00010  -0.00009  -0.00038   0.00076   0.00016
  95        3PZ         0.00000   0.00001   0.00001  -0.00001   0.00000
  96        4S         -0.00153  -0.00032  -0.01601  -0.01381  -0.00311
  97        4PX        -0.00092  -0.00062  -0.00571  -0.00872  -0.00017
  98        4PY         0.00085  -0.00011   0.00515   0.00800   0.00171
  99        4PZ        -0.00002  -0.00003  -0.00017  -0.00028  -0.00014
 100        5S         -0.00047   0.00009  -0.00377   0.00282  -0.00552
 101        5PX         0.00000  -0.00003  -0.00106   0.00229  -0.00120
 102        5PY         0.00001  -0.00001   0.00102  -0.00190   0.00145
 103        5PZ         0.00001   0.00002  -0.00003   0.00026   0.00004
 104        6D 0       -0.00002   0.00000   0.00021  -0.00005   0.00001
 105        6D+1        0.00000   0.00000   0.00002   0.00001   0.00000
 106        6D-1        0.00000   0.00000   0.00000   0.00000   0.00000
 107        6D+2        0.00000   0.00002   0.00000  -0.00001   0.00002
 108        6D-2       -0.00003   0.00000  -0.00005  -0.00009   0.00004
 109        7D 0        0.00007  -0.00003  -0.00009   0.00035   0.00004
 110        7D+1        0.00000   0.00000   0.00001  -0.00003   0.00000
 111        7D-1        0.00000  -0.00001  -0.00001   0.00002   0.00000
 112        7D+2        0.00000  -0.00008   0.00001   0.00003  -0.00002
 113        7D-2        0.00011  -0.00001  -0.00019   0.00060  -0.00005
 114        8D 0        0.00026   0.00015   0.00143   0.00255  -0.00034
 115        8D+1       -0.00001   0.00001  -0.00008  -0.00008  -0.00003
 116        8D-1        0.00001   0.00002   0.00007   0.00012   0.00004
 117        8D+2       -0.00004  -0.00028  -0.00017  -0.00051   0.00087
 118        8D-2        0.00046  -0.00013   0.00246   0.00455   0.00005
 119        9F 0        0.00000   0.00000   0.00001   0.00001   0.00000
 120        9F+1        0.00005   0.00000   0.00011   0.00015  -0.00004
 121        9F-1       -0.00005   0.00000  -0.00010  -0.00014   0.00003
 122        9F+2        0.00000   0.00000   0.00000   0.00000   0.00000
 123        9F-2        0.00001   0.00000   0.00001   0.00002   0.00000
 124        9F+3        0.00007  -0.00007   0.00012   0.00022  -0.00001
 125        9F-3        0.00007   0.00002   0.00013   0.00023  -0.00005
 126 4   H  1S         -0.00002  -0.00006   0.00005  -0.00029  -0.00006
 127        2S         -0.00018   0.00117   0.00015  -0.00181  -0.00001
 128        3S         -0.00009  -0.00139  -0.00026  -0.00269  -0.00176
                           6         7         8         9        10
                           O         O         O         O         O
     Eigenvalues --    -6.01897  -6.01563  -1.11767  -1.04783  -0.70644
   1 1   S  1S         -0.00002   0.00112   0.01729   0.00634   0.02660
   2        2S         -0.00006   0.00304   0.04915   0.01811   0.07595
   3        3S          0.00010  -0.00516  -0.10466  -0.03918  -0.16517
   4        4S          0.00009  -0.00568  -0.17642  -0.06352  -0.28072
   5        5S         -0.00001   0.00174   0.31095   0.11073   0.52789
   6        6S          0.00036  -0.00950   0.09605   0.04965   0.36842
   7        7S          0.00003  -0.00174   0.01844   0.00363   0.00926
   8        7PX        -0.00004  -0.00034   0.00366  -0.00569  -0.00035
   9        7PY        -0.00007  -0.00122   0.01120   0.00046  -0.00927
  10        7PZ        -0.00187  -0.00002  -0.00023  -0.00041  -0.00035
  11        8PX         0.01811  -0.06665   0.00049   0.03384  -0.02401
  12        8PY         0.00393   0.37248  -0.02285  -0.01249   0.00981
  13        8PZ         0.37833  -0.00064   0.00071   0.00035   0.00120
  14        9PX         0.03387  -0.12444   0.00059   0.06616  -0.04671
  15        9PY         0.00731   0.69600  -0.04514  -0.02425   0.01836
  16        9PZ         0.70625  -0.00123   0.00140   0.00070   0.00235
  17       10PX         0.00289  -0.01077  -0.00115  -0.08900   0.06641
  18       10PY         0.00057   0.05902   0.06219   0.03317  -0.02379
  19       10PZ         0.05875  -0.00015  -0.00187  -0.00112  -0.00350
  20       11PX        -0.00042   0.00226   0.00184  -0.09522   0.09770
  21       11PY         0.00003  -0.01136   0.05206   0.03491  -0.04659
  22       11PZ        -0.00824   0.00014  -0.00200  -0.00029  -0.00465
  23       12PX        -0.00016   0.00243  -0.01334  -0.03036   0.02533
  24       12PY         0.00023  -0.00028  -0.00314   0.00693   0.01382
  25       12PZ         0.00365   0.00006   0.00100  -0.00010   0.00002
  26       13D 0       -0.00010  -0.00071  -0.00629  -0.00267   0.00125
  27       13D+1        0.00039   0.00001   0.00006   0.00042  -0.00061
  28       13D-1        0.00151  -0.00005  -0.00025  -0.00023  -0.00012
  29       13D+2        0.00000  -0.00159   0.00222  -0.00206   0.00296
  30       13D-2        0.00006   0.00022  -0.00304  -0.01271   0.00493
  31       14D 0        0.00003  -0.00015  -0.02495  -0.00874   0.00739
  32       14D+1        0.00016   0.00003  -0.00009   0.00180  -0.00350
  33       14D-1       -0.00020   0.00000  -0.00103  -0.00073  -0.00026
  34       14D+2        0.00002   0.00005   0.01063  -0.01039   0.01590
  35       14D-2        0.00006  -0.00029  -0.00829  -0.05187   0.02073
  36       15D 0        0.00001   0.00157  -0.00061  -0.00398   0.00186
  37       15D+1        0.00006  -0.00004   0.00047   0.00028  -0.00208
  38       15D-1       -0.00063   0.00011  -0.00043   0.00081   0.00150
  39       15D+2       -0.00005   0.00149   0.00110  -0.00513   0.00316
  40       15D-2       -0.00012   0.00125  -0.00441  -0.01674   0.00996
  41       16F 0        0.00032  -0.00002   0.00075   0.00015   0.00118
  42       16F+1        0.00001   0.00006   0.00013   0.00969  -0.00445
  43       16F-1        0.00003   0.00031  -0.00751  -0.00373  -0.00270
  44       16F+2       -0.00001  -0.00001  -0.00035   0.00000  -0.00130
  45       16F-2        0.00006   0.00000   0.00014   0.00098  -0.00033
  46       16F+3       -0.00001   0.00004   0.00613   0.00614   0.00367
  47       16F-3       -0.00001   0.00014   0.01273   0.00028   0.00357
  48 2   O  1S          0.00000  -0.00001  -0.08091   0.08081   0.02595
  49        2S          0.00000   0.00000  -0.12946   0.12964   0.04204
  50        2PX         0.00000  -0.00009  -0.03474   0.01923  -0.07322
  51        2PY         0.00000   0.00001   0.01066  -0.01802  -0.11794
  52        2PZ         0.00003   0.00000   0.00823  -0.00907  -0.01701
  53        3S         -0.00002  -0.00034   0.36935  -0.37402  -0.12566
  54        3PX        -0.00002   0.00012  -0.05581   0.03313  -0.10730
  55        3PY        -0.00003  -0.00011   0.02353  -0.03402  -0.18052
  56        3PZ         0.00001  -0.00002   0.01491  -0.01632  -0.02708
  57        4S          0.00019   0.00184   0.31315  -0.32039  -0.15097
  58        4PX         0.00006  -0.00199  -0.04964   0.02981  -0.06660
  59        4PY         0.00023   0.00092   0.02164  -0.03161  -0.13777
  60        4PZ         0.00059   0.00021   0.01363  -0.01496  -0.02266
  61        5S         -0.00007   0.00065  -0.03360   0.06757  -0.03967
  62        5PX        -0.00004   0.00014   0.00703  -0.01963   0.01550
  63        5PY        -0.00021   0.00055  -0.01062   0.00429   0.01553
  64        5PZ        -0.00011   0.00005  -0.00390   0.00462   0.00117
  65        6D 0        0.00000  -0.00001  -0.00003  -0.00009  -0.00027
  66        6D+1       -0.00001   0.00000  -0.00005   0.00003  -0.00003
  67        6D-1        0.00000   0.00000  -0.00005   0.00002  -0.00028
  68        6D+2        0.00000   0.00002   0.00024  -0.00006   0.00091
  69        6D-2        0.00000   0.00000   0.00013   0.00007   0.00074
  70        7D 0        0.00000   0.00005  -0.00674   0.00546  -0.00016
  71        7D+1        0.00002   0.00001  -0.00123   0.00108  -0.00007
  72        7D-1       -0.00002  -0.00002   0.00376  -0.00405  -0.00558
  73        7D+2        0.00001  -0.00001  -0.00187   0.00496   0.01374
  74        7D-2        0.00001   0.00003   0.00191  -0.00174   0.00866
  75        8D 0        0.00001  -0.00047  -0.01056   0.00915   0.00213
  76        8D+1       -0.00056  -0.00006  -0.00284   0.00210  -0.00046
  77        8D-1       -0.00011   0.00020   0.00511  -0.00605  -0.00888
  78        8D+2       -0.00014   0.00058  -0.00006   0.00485   0.02019
  79        8D-2       -0.00005  -0.00051   0.00214  -0.00112   0.00871
  80        9F 0       -0.00001  -0.00001  -0.00144   0.00148   0.00156
  81        9F+1       -0.00001  -0.00002   0.00166  -0.00108   0.00130
  82        9F-1       -0.00001  -0.00004  -0.00057   0.00066   0.00274
  83        9F+2        0.00001  -0.00002  -0.00132   0.00153   0.00218
  84        9F-2        0.00000  -0.00001  -0.00051   0.00035  -0.00010
  85        9F+3        0.00001  -0.00004   0.00010  -0.00087   0.00084
  86        9F-3        0.00000   0.00006  -0.00322   0.00353   0.00116
  87 3   O  1S          0.00001  -0.00018  -0.06513  -0.08533   0.04842
  88        2S          0.00001  -0.00020  -0.10410  -0.13677   0.07846
  89        2PX        -0.00002   0.00031   0.03508   0.03423   0.02932
  90        2PY         0.00002  -0.00023  -0.02985  -0.03585  -0.02945
  91        2PZ         0.00007   0.00001   0.00121   0.00137  -0.00010
  92        3S         -0.00002   0.00011   0.29860   0.39779  -0.23721
  93        3PX         0.00000   0.00004   0.05416   0.05205   0.03961
  94        3PY         0.00001  -0.00010  -0.04468  -0.05575  -0.03894
  95        3PZ         0.00006   0.00001   0.00163   0.00226  -0.00010
  96        4S         -0.00022   0.00511   0.21616   0.28211  -0.22604
  97        4PX        -0.00013   0.00342   0.03253   0.02833   0.02103
  98        4PY         0.00010  -0.00142  -0.02554  -0.02880  -0.02705
  99        4PZ         0.00090   0.00006   0.00172   0.00048  -0.00116
 100        5S         -0.00041   0.00594  -0.03582  -0.06149  -0.02812
 101        5PX        -0.00008   0.00107  -0.00747  -0.01545  -0.00772
 102        5PY         0.00007  -0.00082   0.00820   0.01574   0.00658
 103        5PZ        -0.00008   0.00006  -0.00072  -0.00013  -0.00084
 104        6D 0        0.00000  -0.00002  -0.00006   0.00001  -0.00056
 105        6D+1        0.00002   0.00000   0.00004   0.00004  -0.00001
 106        6D-1       -0.00001   0.00000  -0.00002  -0.00001  -0.00002
 107        6D+2        0.00000   0.00002  -0.00004   0.00008  -0.00001
 108        6D-2        0.00000  -0.00005  -0.00060  -0.00058  -0.00060
 109        7D 0        0.00000   0.00000  -0.00334  -0.00267  -0.00273
 110        7D+1       -0.00001  -0.00001   0.00033   0.00045  -0.00010
 111        7D-1       -0.00001   0.00000  -0.00014  -0.00026  -0.00008
 112        7D+2        0.00000  -0.00002   0.00201  -0.00099   0.00051
 113        7D-2       -0.00001   0.00004  -0.00791  -0.00910  -0.00241
 114        8D 0        0.00002  -0.00011  -0.00445  -0.00468  -0.00258
 115        8D+1        0.00058   0.00003   0.00067   0.00023  -0.00054
 116        8D-1       -0.00045   0.00001  -0.00033   0.00004  -0.00011
 117        8D+2        0.00000   0.00084   0.00076   0.00080  -0.00169
 118        8D-2        0.00001  -0.00014  -0.00725  -0.00771  -0.00383
 119        9F 0        0.00000   0.00000  -0.00010  -0.00011   0.00003
 120        9F+1        0.00000   0.00001  -0.00128  -0.00115   0.00005
 121        9F-1        0.00000  -0.00002   0.00109   0.00130  -0.00008
 122        9F+2        0.00001   0.00000   0.00004  -0.00001  -0.00004
 123        9F-2        0.00000   0.00000  -0.00009  -0.00013   0.00002
 124        9F+3       -0.00001   0.00007  -0.00069  -0.00200   0.00008
 125        9F-3        0.00000   0.00002  -0.00190  -0.00131  -0.00037
 126 4   H  1S         -0.00001  -0.00010   0.06303  -0.06795  -0.10071
 127        2S         -0.00037  -0.00086   0.00446  -0.00400  -0.04928
 128        3S          0.00039  -0.00018   0.02682  -0.02998  -0.03708
                          11        12        13        14        15
                           O         O         O         O         O
     Eigenvalues --    -0.54455  -0.48263  -0.47475  -0.42267  -0.38673
   1 1   S  1S         -0.01278   0.00341   0.00195  -0.00742  -0.00295
   2        2S         -0.03660   0.00978   0.00561  -0.02125  -0.00844
   3        3S          0.08063  -0.02180  -0.01248   0.04694   0.01868
   4        4S          0.13560  -0.03539  -0.02017   0.07955   0.03168
   5        5S         -0.26687   0.06653   0.03453  -0.15093  -0.06087
   6        6S         -0.25451   0.09353   0.06326  -0.20797  -0.08960
   7        7S         -0.00975   0.00778   0.00822  -0.01716  -0.00606
   8        7PX        -0.00779   0.00785   0.00068   0.01474   0.00893
   9        7PY         0.00262   0.00457   0.00270  -0.01527  -0.00787
  10        7PZ         0.00007   0.00523  -0.00749  -0.00352   0.00314
  11        8PX        -0.04382   0.03353   0.00403   0.02518   0.00345
  12        8PY        -0.00434   0.04181   0.03386  -0.05471  -0.01822
  13        8PZ         0.01119   0.03480  -0.05970  -0.01399   0.00629
  14        9PX        -0.08432   0.06459   0.00783   0.04856   0.00672
  15        9PY        -0.00823   0.08019   0.06495  -0.10443  -0.03476
  16        9PZ         0.02145   0.06657  -0.11416  -0.02672   0.01211
  17       10PX         0.12353  -0.09643  -0.01129  -0.07780  -0.01211
  18       10PY         0.00980  -0.11858  -0.09706   0.15751   0.05298
  19       10PZ        -0.03111  -0.09824   0.16843   0.04000  -0.01938
  20       11PX         0.20079  -0.15321  -0.01651  -0.10973  -0.00954
  21       11PY         0.01465  -0.19369  -0.15770   0.26789   0.08956
  22       11PZ        -0.05417  -0.17346   0.30069   0.07196  -0.02546
  23       12PX         0.07545  -0.03848  -0.00245  -0.04501  -0.02257
  24       12PY        -0.01253  -0.04638  -0.03052   0.08073   0.03783
  25       12PZ        -0.01221  -0.04954   0.08209   0.02373  -0.01550
  26       13D 0       -0.00291   0.00281   0.00215  -0.00818  -0.00354
  27       13D+1       -0.00144   0.00028  -0.00128  -0.00499   0.01465
  28       13D-1       -0.00136  -0.00389   0.00704   0.00184  -0.00327
  29       13D+2        0.00624   0.00693   0.00574   0.00126   0.00272
  30       13D-2        0.00546  -0.00664  -0.00097  -0.01281  -0.00520
  31       14D 0       -0.01533   0.01389   0.01003  -0.03655  -0.01596
  32       14D+1       -0.00748   0.00040  -0.00265  -0.02223   0.06727
  33       14D-1       -0.00656  -0.01742   0.03269   0.00804  -0.01303
  34       14D+2        0.02928   0.02891   0.02561   0.00346   0.01184
  35       14D-2        0.02510  -0.02980  -0.00582  -0.05056  -0.02059
  36       15D 0       -0.00666   0.00768   0.00540  -0.01794  -0.00939
  37       15D+1       -0.00425  -0.00104   0.00255  -0.00990   0.03551
  38       15D-1       -0.00133  -0.00669   0.00823   0.00283  -0.00774
  39       15D+2        0.01273   0.00322   0.00173   0.00059   0.00202
  40       15D-2        0.01685  -0.01012   0.00039  -0.02545  -0.01441
  41       16F 0        0.00241   0.00499  -0.00867  -0.00140   0.00039
  42       16F+1       -0.00881   0.00553   0.00043   0.00331  -0.00146
  43       16F-1        0.00137   0.00253   0.00195  -0.00353  -0.00101
  44       16F+2       -0.00200  -0.00172   0.00362  -0.00169   0.00663
  45       16F-2       -0.00134   0.00232  -0.00363  -0.00635   0.01735
  46       16F+3        0.00782  -0.00281  -0.00048   0.01393   0.00823
  47       16F-3        0.00336   0.00052  -0.00049   0.00485   0.00172
  48 2   O  1S         -0.02223  -0.02797  -0.01128  -0.02435  -0.00377
  49        2S         -0.03625  -0.04560  -0.01838  -0.03977  -0.00615
  50        2PX        -0.02281   0.15721   0.08484   0.07340   0.03811
  51        2PY        -0.17030  -0.03271  -0.05785  -0.09276  -0.07804
  52        2PZ        -0.05141  -0.08328   0.10950  -0.06439   0.22141
  53        3S          0.11346   0.14274   0.05762   0.12485   0.01924
  54        3PX        -0.03539   0.22874   0.12345   0.10596   0.05506
  55        3PY        -0.25365  -0.04505  -0.08360  -0.13579  -0.11353
  56        3PZ        -0.07593  -0.12076   0.15965  -0.09412   0.32258
  57        4S          0.10337   0.16395   0.06463   0.15109   0.02640
  58        4PX        -0.02123   0.19872   0.11122   0.09331   0.05289
  59        4PY        -0.20984  -0.05011  -0.07981  -0.12200  -0.10806
  60        4PZ        -0.06500  -0.10814   0.14689  -0.08479   0.30807
  61        5S          0.01308   0.04403   0.00827   0.08764   0.03905
  62        5PX         0.00546   0.02015   0.01285   0.00203  -0.00149
  63        5PY         0.01061  -0.00055  -0.01113  -0.00318  -0.01516
  64        5PZ         0.00118  -0.00804   0.01135  -0.00662   0.05436
  65        6D 0        0.00024   0.00042   0.00039   0.00042   0.00042
  66        6D+1        0.00018   0.00055  -0.00045   0.00020  -0.00056
  67        6D-1       -0.00049  -0.00021   0.00001  -0.00038   0.00024
  68        6D+2        0.00077  -0.00050  -0.00024   0.00032   0.00010
  69        6D-2        0.00059   0.00031   0.00035   0.00018   0.00024
  70        7D 0        0.00217   0.00467   0.00489   0.00356   0.00434
  71        7D+1        0.00222   0.00658  -0.00612   0.00234  -0.00710
  72        7D-1       -0.00601  -0.00108  -0.00065  -0.00435   0.00226
  73        7D+2        0.01065  -0.00748  -0.00382   0.00492   0.00132
  74        7D-2        0.00898   0.00300   0.00383   0.00222   0.00269
  75        8D 0        0.00352   0.00234   0.00973   0.00461   0.01494
  76        8D+1        0.00536   0.01747  -0.01163   0.00708  -0.01860
  77        8D-1       -0.01016  -0.00477   0.00673  -0.00587   0.01219
  78        8D+2        0.01177  -0.02310  -0.01098  -0.00106   0.00141
  79        8D-2        0.01387   0.02329   0.01644   0.01116   0.00906
  80        9F 0        0.00229   0.00234  -0.00237   0.00164  -0.00343
  81        9F+1        0.00103  -0.00212  -0.00174  -0.00029  -0.00076
  82        9F-1        0.00276  -0.00071   0.00204   0.00057   0.00358
  83        9F+2        0.00194  -0.00044   0.00003   0.00135  -0.00138
  84        9F-2        0.00004   0.00063   0.00197   0.00043   0.00191
  85        9F+3        0.00111  -0.00007   0.00055  -0.00113  -0.00019
  86        9F-3        0.00113   0.00088   0.00092   0.00161   0.00110
  87 3   O  1S         -0.04408   0.00222  -0.01056   0.01911   0.00309
  88        2S         -0.07151   0.00362  -0.01716   0.03103   0.00501
  89        2PX        -0.07578  -0.06227  -0.08367   0.15923   0.05249
  90        2PY         0.10319  -0.09117  -0.00966  -0.09662  -0.03820
  91        2PZ        -0.01808  -0.07684   0.13809   0.08982  -0.16865
  92        3S          0.21660  -0.01001   0.05299  -0.09321  -0.01439
  93        3PX        -0.10913  -0.09216  -0.12200   0.22918   0.07525
  94        3PY         0.14961  -0.13243  -0.01408  -0.13857  -0.05465
  95        3PZ        -0.02633  -0.11244   0.20199   0.13120  -0.24635
  96        4S          0.27284  -0.01959   0.06850  -0.15072  -0.03124
  97        4PX        -0.05375  -0.08228  -0.09538   0.16908   0.05728
  98        4PY         0.08278  -0.10981  -0.02628  -0.09385  -0.04427
  99        4PZ        -0.01974  -0.09065   0.16564   0.11013  -0.21467
 100        5S          0.11658  -0.02040   0.01355  -0.06692  -0.03723
 101        5PX         0.01317  -0.01468  -0.01167   0.01372  -0.00063
 102        5PY        -0.01298  -0.00583  -0.00295  -0.01068  -0.00344
 103        5PZ         0.00048  -0.00585   0.01074   0.01125  -0.02636
 104        6D 0        0.00083  -0.00015   0.00028  -0.00078  -0.00029
 105        6D+1       -0.00011  -0.00041   0.00065   0.00038  -0.00053
 106        6D-1        0.00011   0.00028  -0.00057  -0.00035   0.00052
 107        6D+2        0.00009  -0.00074  -0.00048   0.00036   0.00010
 108        6D-2        0.00103  -0.00027   0.00028  -0.00121  -0.00044
 109        7D 0        0.00691  -0.00023   0.00346  -0.00698  -0.00238
 110        7D+1       -0.00151  -0.00524   0.00892   0.00451  -0.00633
 111        7D-1        0.00150   0.00452  -0.00826  -0.00439   0.00663
 112        7D+2        0.00270  -0.01099  -0.00660   0.00402   0.00102
 113        7D-2        0.00958  -0.00172   0.00368  -0.01133  -0.00363
 114        8D 0        0.00230  -0.00109   0.00173  -0.00582  -0.00342
 115        8D+1       -0.00188  -0.00826   0.01298   0.00682  -0.01111
 116        8D-1        0.00097   0.00396  -0.00937  -0.00635   0.01189
 117        8D+2       -0.00034  -0.01664  -0.01258   0.00524  -0.00106
 118        8D-2        0.00175  -0.00290   0.00011  -0.00816  -0.00489
 119        9F 0        0.00034   0.00105  -0.00168  -0.00077   0.00078
 120        9F+1        0.00027   0.00025   0.00077  -0.00105  -0.00056
 121        9F-1       -0.00044   0.00028  -0.00024   0.00093   0.00046
 122        9F+2       -0.00018  -0.00041   0.00035   0.00010   0.00032
 123        9F-2        0.00056   0.00169  -0.00311  -0.00159   0.00228
 124        9F+3        0.00209  -0.00281  -0.00100  -0.00092  -0.00047
 125        9F-3        0.00068   0.00210   0.00211  -0.00290  -0.00085
 126 4   H  1S         -0.11725  -0.02865  -0.01544  -0.07366  -0.01312
 127        2S         -0.09177  -0.03789  -0.02105  -0.07696  -0.01538
 128        3S         -0.07925  -0.02020  -0.00071  -0.07965  -0.02533
                          16        17        18        19        20
                           O         O         V         V         V
     Eigenvalues --    -0.34466  -0.23493  -0.02892  -0.00180   0.01522
   1 1   S  1S          0.00699   0.00024  -0.00388   0.00082  -0.01271
   2        2S          0.02010   0.00067  -0.01119   0.00237  -0.03649
   3        3S         -0.04503  -0.00149   0.02545  -0.00551   0.08145
   4        4S         -0.07413  -0.00261   0.04217  -0.00787   0.14556
   5        5S          0.13828   0.00481  -0.07029  -0.02712  -0.38498
   6        6S          0.25525   0.01141  -0.41630   0.53465   0.14764
   7        7S          0.04116  -0.00021  -0.71519   1.52040   1.70769
   8        7PX         0.01700  -0.00459  -0.38445  -0.32629   0.33335
   9        7PY         0.01115  -0.00146  -0.30559   0.43292  -0.56600
  10        7PZ        -0.00010  -0.05377  -0.03522   0.04505   0.14331
  11        8PX        -0.00752   0.00131   0.05285   0.03328   0.00777
  12        8PY         0.02417  -0.00295   0.02786  -0.02839   0.01536
  13        8PZ        -0.00044  -0.08757  -0.00115   0.00351   0.00040
  14        9PX        -0.01380   0.00250   0.09869   0.06194   0.01509
  15        9PY         0.04625  -0.00555   0.05133  -0.05205   0.02870
  16        9PZ        -0.00082  -0.16561  -0.00233   0.00669   0.00096
  17       10PX         0.01856  -0.00370  -0.14919  -0.09053  -0.02803
  18       10PY        -0.07163   0.00812  -0.07228   0.07000  -0.04591
  19       10PZ         0.00110   0.25384   0.00467  -0.01106  -0.00262
  20       11PX         0.05603  -0.00987  -0.36474  -0.29652  -0.06248
  21       11PY        -0.11793   0.02076  -0.24398   0.30054  -0.03967
  22       11PZ         0.00297   0.54036   0.00359  -0.02396  -0.00115
  23       12PX         0.00114   0.00769  -0.36217  -0.30911  -0.31620
  24       12PY        -0.03911   0.00686  -0.29840   0.55666   0.48068
  25       12PZ         0.00130   0.36651   0.04400  -0.06894  -0.05638
  26       13D 0        0.00840   0.00173  -0.01342   0.01997  -0.01916
  27       13D+1        0.00033   0.00607  -0.00021  -0.00031  -0.00076
  28       13D-1       -0.00016  -0.01336  -0.00093   0.00184  -0.00187
  29       13D+2       -0.01971  -0.00048  -0.00172   0.00166   0.00103
  30       13D-2       -0.00715   0.00185   0.02114   0.02934  -0.00778
  31       14D 0        0.03677   0.00752  -0.05166   0.07278  -0.08747
  32       14D+1        0.00194   0.02607  -0.00153  -0.00092  -0.00397
  33       14D-1       -0.00022  -0.05689  -0.00463   0.00675  -0.00850
  34       14D+2       -0.08378  -0.00264  -0.00714   0.00896   0.01015
  35       14D-2       -0.03059   0.00757   0.08538   0.10204  -0.03617
  36       15D 0        0.01689   0.00828  -0.05806   0.06019  -0.19930
  37       15D+1        0.00262   0.02102  -0.00082  -0.00322  -0.00496
  38       15D-1       -0.00011  -0.05451  -0.00590   0.01025  -0.01960
  39       15D+2       -0.04529   0.00174  -0.01793   0.03857   0.01040
  40       15D-2       -0.02460   0.00939   0.14864   0.13981  -0.09292
  41       16F 0       -0.00027   0.01597  -0.00017  -0.00068   0.00306
  42       16F+1        0.00212   0.00016  -0.01444  -0.00945  -0.00058
  43       16F-1       -0.00035   0.00184  -0.00568   0.00710  -0.01351
  44       16F+2        0.00119  -0.00231   0.00140  -0.00053  -0.00144
  45       16F-2        0.00159   0.00689  -0.00132  -0.00057   0.00000
  46       16F+3        0.01440  -0.00258   0.00515  -0.00316   0.01348
  47       16F-3       -0.02457   0.00023   0.00237  -0.00484   0.01589
  48 2   O  1S          0.00444  -0.00355  -0.04080   0.00018   0.00153
  49        2S          0.00737  -0.00583  -0.06794   0.00025   0.00238
  50        2PX         0.15218  -0.00357  -0.07814   0.01840  -0.08403
  51        2PY         0.00850   0.01784  -0.00381  -0.06178  -0.04229
  52        2PZ        -0.00683  -0.12421   0.02487   0.00441  -0.01101
  53        3S         -0.02417   0.01832   0.22758   0.00273  -0.00118
  54        3PX         0.22167  -0.00514  -0.12434   0.02693  -0.12773
  55        3PY         0.01142   0.02561  -0.00029  -0.09657  -0.06193
  56        3PZ        -0.01029  -0.18070   0.03885   0.00563  -0.01693
  57        4S         -0.04454   0.02824   0.40908  -0.06730  -0.05884
  58        4PX         0.22401  -0.00813  -0.15668   0.05998  -0.08695
  59        4PY         0.01261   0.03344   0.04566  -0.10481  -0.10205
  60        4PZ        -0.01259  -0.18767   0.06411   0.00028  -0.03008
  61        5S         -0.02159   0.03306   0.84583  -0.44579  -0.91956
  62        5PX         0.02975  -0.00371  -0.22508   0.18774   0.09446
  63        5PY        -0.00659   0.02136  -0.07029  -0.05445  -0.07808
  64        5PZ        -0.00471  -0.07847   0.01089   0.02499  -0.05507
  65        6D 0        0.00028  -0.00007   0.00043   0.00037   0.00006
  66        6D+1        0.00016  -0.00017  -0.00006  -0.00001  -0.00003
  67        6D-1        0.00004  -0.00060  -0.00041   0.00001   0.00013
  68        6D+2       -0.00067   0.00010   0.00081   0.00065  -0.00062
  69        6D-2        0.00002  -0.00010  -0.00046  -0.00034  -0.00057
  70        7D 0        0.00200  -0.00056   0.00156   0.00500  -0.00056
  71        7D+1        0.00177  -0.00214  -0.00146   0.00071  -0.00001
  72        7D-1       -0.00026  -0.00674   0.00092  -0.00175   0.00048
  73        7D+2       -0.00449   0.00118   0.00106   0.00923  -0.00378
  74        7D-2        0.00256  -0.00097  -0.00779  -0.00092  -0.00390
  75        8D 0        0.00836  -0.00683  -0.01668   0.02027   0.02314
  76        8D+1        0.00666   0.00081  -0.00582  -0.00113   0.00002
  77        8D-1       -0.00001  -0.01631   0.00371  -0.00120  -0.00417
  78        8D+2       -0.01389  -0.00071   0.00995   0.01675  -0.01538
  79        8D-2        0.00351  -0.00369  -0.00619  -0.01548  -0.03336
  80        9F 0        0.00036   0.00098  -0.00114   0.00077   0.00069
  81        9F+1       -0.00135   0.00004   0.00074  -0.00105  -0.00012
  82        9F-1       -0.00037  -0.00182  -0.00073   0.00080   0.00043
  83        9F+2       -0.00020   0.00176  -0.00098   0.00088   0.00056
  84        9F-2        0.00113   0.00063  -0.00078  -0.00004  -0.00081
  85        9F+3       -0.00165  -0.00016   0.00088  -0.00087   0.00219
  86        9F-3        0.00071  -0.00014  -0.00071   0.00217   0.00233
  87 3   O  1S         -0.00019   0.00074   0.00068   0.03136  -0.00931
  88        2S         -0.00024   0.00121   0.00120   0.05219  -0.01586
  89        2PX         0.14758  -0.00657   0.06478  -0.04238   0.06842
  90        2PY         0.19918  -0.00216   0.08409   0.05787  -0.04042
  91        2PZ        -0.00815  -0.18071   0.00162  -0.00211  -0.00337
  92        3S          0.00061  -0.00417  -0.00862  -0.18018   0.06703
  93        3PX         0.21304  -0.00923   0.09775  -0.06179   0.10434
  94        3PY         0.28877  -0.00323   0.12807   0.08444  -0.05872
  95        3PZ        -0.01193  -0.26399   0.00201  -0.00277  -0.00584
  96        4S         -0.00307  -0.00319   0.04391  -0.26482  -0.04565
  97        4PX         0.20419  -0.00929   0.12454  -0.15202   0.01979
  98        4PY         0.26477  -0.00240   0.09102   0.17817   0.00380
  99        4PZ        -0.00987  -0.25951   0.00508  -0.00808  -0.00307
 100        5S         -0.01766   0.00984   0.27994  -1.17049  -1.00567
 101        5PX         0.02350   0.00118   0.19719  -0.15352  -0.18565
 102        5PY         0.05460  -0.00417   0.10593   0.15617   0.27354
 103        5PZ        -0.00234  -0.10244  -0.00532   0.00687  -0.02259
 104        6D 0        0.00002   0.00002  -0.00001   0.00013  -0.00003
 105        6D+1        0.00000  -0.00007  -0.00001  -0.00001   0.00000
 106        6D-1        0.00006  -0.00005  -0.00003   0.00005   0.00000
 107        6D+2        0.00113  -0.00001  -0.00044  -0.00008  -0.00017
 108        6D-2        0.00017   0.00005   0.00020   0.00034   0.00015
 109        7D 0        0.00203   0.00003  -0.00242  -0.00023  -0.00033
 110        7D+1       -0.00010  -0.00026  -0.00010  -0.00030  -0.00024
 111        7D-1        0.00061  -0.00097  -0.00037   0.00034   0.00015
 112        7D+2        0.01136   0.00008  -0.00236  -0.00102  -0.00141
 113        7D-2        0.00237   0.00011   0.00076   0.00001   0.00244
 114        8D 0       -0.00164   0.00025  -0.00577   0.02983   0.01714
 115        8D+1        0.00019  -0.00904   0.00021  -0.00107  -0.00075
 116        8D-1        0.00105   0.00511  -0.00093   0.00278   0.00081
 117        8D+2        0.02767   0.00060  -0.00208  -0.00198  -0.00644
 118        8D-2        0.00210   0.00095  -0.00679   0.04523   0.03554
 119        9F 0       -0.00002  -0.00072  -0.00010   0.00015   0.00002
 120        9F+1        0.00055  -0.00007  -0.00049   0.00106   0.00047
 121        9F-1       -0.00029  -0.00012   0.00107  -0.00082  -0.00027
 122        9F+2        0.00015  -0.00038  -0.00003   0.00002  -0.00006
 123        9F-2        0.00022   0.00019  -0.00008   0.00023   0.00013
 124        9F+3        0.00292   0.00008   0.00021   0.00116   0.00046
 125        9F-3       -0.00188   0.00000  -0.00005   0.00138   0.00119
 126 4   H  1S          0.00271  -0.01839  -0.04635  -0.03074   0.02821
 127        2S          0.01725  -0.02943  -0.18274  -0.00230   0.08160
 128        3S          0.03737  -0.04584  -0.44240   0.07323   0.56616
                          21        22        23        24        25
                           V         V         V         V         V
     Eigenvalues --     0.03863   0.04725   0.07646   0.11696   0.14811
   1 1   S  1S         -0.00289   0.00264  -0.00139  -0.00575   0.00332
   2        2S         -0.00841   0.00764  -0.00400  -0.01666   0.00971
   3        3S          0.01990  -0.01760   0.00902   0.03840  -0.02322
   4        4S          0.02853  -0.02816   0.01549   0.06223  -0.03306
   5        5S         -0.01638   0.04883  -0.03087  -0.13821   0.00730
   6        6S         -0.47485   0.18234  -0.14414  -0.33950   1.48668
   7        7S         -0.64706   0.01153  -0.02634   1.52254   0.96396
   8        7PX         0.21332  -0.18466  -2.14923   0.30917  -0.41311
   9        7PY         0.94291  -0.43825   0.11660   1.43472   0.38809
  10        7PZ         0.63614   1.43188  -0.03836   0.08236   0.18761
  11        8PX         0.02351  -0.01183  -0.03874   0.00220  -0.01098
  12        8PY         0.03721  -0.01689   0.00414   0.02566   0.00637
  13        8PZ         0.00837   0.02593  -0.00206   0.00281   0.00485
  14        9PX         0.04424  -0.02237  -0.07254   0.00502  -0.02064
  15        9PY         0.07062  -0.03215   0.00755   0.04899   0.01356
  16        9PZ         0.01695   0.05120  -0.00394   0.00508   0.00876
  17       10PX        -0.07070   0.03650   0.10929  -0.01869   0.03581
  18       10PY        -0.11427   0.05284  -0.00875  -0.08413  -0.03679
  19       10PZ        -0.03503  -0.09812   0.00686  -0.00716  -0.01241
  20       11PX        -0.16659   0.08407   0.34399   0.05818   0.02639
  21       11PY        -0.27520   0.11347  -0.05427  -0.15035   0.12273
  22       11PZ        -0.02354  -0.11493   0.01229  -0.02964  -0.05085
  23       12PX        -0.44490   0.24083   2.27943   0.26143   0.81313
  24       12PY        -0.96150   0.41842  -0.31835  -0.34220   0.25617
  25       12PZ        -0.25277  -0.64578   0.05246   0.06072   0.11463
  26       13D 0       -0.02087   0.01157  -0.01024  -0.00536  -0.01800
  27       13D+1       -0.00243  -0.00076  -0.00007   0.00159  -0.00196
  28       13D-1       -0.00369  -0.00403  -0.00023  -0.00330  -0.00979
  29       13D+2        0.00905  -0.00455  -0.00060  -0.00156  -0.00249
  30       13D-2        0.00122  -0.00028  -0.02582  -0.02008   0.00184
  31       14D 0       -0.07686   0.04405  -0.03888  -0.02034  -0.08311
  32       14D+1       -0.00996  -0.00202  -0.00173   0.00413  -0.00453
  33       14D-1       -0.01476  -0.01799  -0.00049  -0.01437  -0.03612
  34       14D+2        0.03459  -0.01811  -0.00275   0.00369  -0.00334
  35       14D-2        0.00586  -0.00089  -0.09654  -0.06926  -0.01077
  36       15D 0       -0.08806   0.06507  -0.07295  -0.05283  -0.23295
  37       15D+1       -0.01565  -0.01411  -0.00209   0.01086  -0.01448
  38       15D-1       -0.03234  -0.04463  -0.00167  -0.02628  -0.10797
  39       15D+2        0.06519  -0.04413   0.07190  -0.00559  -0.01020
  40       15D-2       -0.01330   0.01764   0.08458  -0.02485  -0.02432
  41       16F 0        0.00463   0.00489   0.00131  -0.00056  -0.00160
  42       16F+1       -0.00424   0.00168  -0.00487  -0.00225   0.00288
  43       16F-1       -0.00093   0.00128  -0.00170  -0.00572  -0.01182
  44       16F+2       -0.00293  -0.00074  -0.00133   0.00204   0.00405
  45       16F-2        0.00052  -0.00020   0.00095  -0.00092  -0.00051
  46       16F+3        0.00734  -0.00430   0.00407   0.00273   0.00360
  47       16F-3        0.00265  -0.00352   0.00236   0.00856   0.01698
  48 2   O  1S         -0.00175  -0.00127   0.00649  -0.02056   0.00400
  49        2S         -0.00279  -0.00223   0.01015  -0.03391   0.00635
  50        2PX        -0.06668   0.03954   0.04448  -0.02747  -0.06735
  51        2PY        -0.09665   0.05158  -0.00464   0.08664   0.04123
  52        2PZ        -0.02392  -0.01305  -0.01156   0.03041   0.04640
  53        3S          0.01013   0.00848  -0.01599   0.10487  -0.01732
  54        3PX        -0.09060   0.05343   0.06524  -0.06101  -0.07642
  55        3PY        -0.14443   0.07683  -0.01325   0.11789   0.06589
  56        3PZ        -0.03775  -0.02388  -0.01764   0.04406   0.05747
  57        4S         -0.02569   0.02263  -0.24409   0.38622  -0.01345
  58        4PX        -0.18702   0.10261   0.16550   0.06391  -0.19894
  59        4PY        -0.27523   0.13791   0.02927   0.31713   0.13181
  60        4PZ        -0.05647   0.01174  -0.02937   0.08752   0.15621
  61        5S         -0.21228   0.25550  -1.63046  -0.15959  -0.24958
  62        5PX        -0.12770   0.02169   0.56272  -0.46690   1.45775
  63        5PY        -0.26521   0.08935  -0.07631  -0.07485   1.06363
  64        5PZ        -0.06555   0.04802  -0.17814  -0.03847  -0.23262
  65        6D 0       -0.00029   0.00014  -0.00053   0.00075  -0.00011
  66        6D+1        0.00001   0.00019   0.00003   0.00010   0.00034
  67        6D-1        0.00029   0.00001   0.00019  -0.00062  -0.00045
  68        6D+2       -0.00063   0.00036  -0.00087   0.00027   0.00029
  69        6D-2       -0.00027   0.00027   0.00037  -0.00038   0.00045
  70        7D 0       -0.00028  -0.00078  -0.00392   0.00307  -0.00554
  71        7D+1        0.00218   0.00468  -0.00019  -0.00103  -0.00239
  72        7D-1        0.00023   0.00065   0.00135   0.00170  -0.00194
  73        7D+2       -0.00527   0.00275  -0.00760  -0.00938   0.01210
  74        7D-2        0.00057  -0.00003   0.00656  -0.00600   0.00606
  75        8D 0       -0.00527   0.00160  -0.00198   0.01890   0.00461
  76        8D+1       -0.00060   0.00219   0.00494   0.00347   0.01720
  77        8D-1       -0.00843   0.01025  -0.00012  -0.00932  -0.00627
  78        8D+2        0.02516  -0.00813  -0.03287  -0.01827  -0.04213
  79        8D-2        0.00311   0.00818  -0.00439  -0.02818  -0.00510
  80        9F 0        0.00166   0.00025   0.00018  -0.00136  -0.00089
  81        9F+1        0.00090  -0.00016  -0.00009  -0.00087   0.00068
  82        9F-1        0.00196  -0.00090   0.00016  -0.00184  -0.00061
  83        9F+2        0.00118  -0.00147   0.00010  -0.00207  -0.00113
  84        9F-2       -0.00062  -0.00039   0.00039  -0.00035   0.00061
  85        9F+3        0.00214  -0.00131   0.00084   0.00187  -0.00024
  86        9F-3        0.00197  -0.00128   0.00023  -0.00122  -0.00142
  87 3   O  1S         -0.00449   0.00148  -0.00342  -0.00395  -0.00556
  88        2S         -0.00708   0.00231  -0.00504  -0.00612  -0.00963
  89        2PX         0.04757  -0.02589   0.04563   0.05762   0.04973
  90        2PY        -0.00529   0.00922  -0.06556  -0.05223   0.01802
  91        2PZ        -0.01154  -0.00642  -0.00395   0.01335   0.02552
  92        3S          0.01561  -0.00500   0.00299   0.01081   0.04836
  93        3PX         0.06536  -0.03483   0.07302   0.08456   0.06253
  94        3PY        -0.01019   0.01435  -0.09188  -0.07455   0.01222
  95        3PZ        -0.02026  -0.01729  -0.00545   0.01723   0.02925
  96        4S          0.10934  -0.03006   0.22446   0.17433  -0.06613
[...]


 ---------------------------------------------------------------------------------
              Anisotropic Spin Dipole Couplings in Principal Axis System
 ---------------------------------------------------------------------------------

       Atom             a.u.   MegaHertz   Gauss  10(-4) cm-1        Axes

              Baa    -1.6117   -66.080   -23.579   -22.042 -0.0015  0.9995 -0.0331
     1 S(33)  Bbb    -1.4866   -60.950   -21.748   -20.331  0.9999  0.0019  0.0118
              Bcc     3.0984   127.030    45.327    42.373 -0.0119  0.0331  0.9994
 
              Baa    -0.2576    18.642     6.652     6.218  0.8759 -0.4746 -0.0870
     2 O(17)  Bbb    -0.2308    16.701     5.959     5.571  0.4822  0.8673  0.1236
              Bcc     0.4884   -35.342   -12.611   -11.789  0.0168 -0.1502  0.9885
 
              Baa    -0.7939    57.448    20.499    19.163 -0.0032  0.9999 -0.0139
     3 O(17)  Bbb    -0.7902    57.181    20.404    19.074  0.9995  0.0028 -0.0305
              Bcc     1.5842  -114.629   -40.903   -38.236  0.0304  0.0140  0.9994
 
              Baa    -0.0118    -6.272    -2.238    -2.092 -0.2536 -0.0969  0.9624
     4 H(1)   Bbb    -0.0101    -5.363    -1.914    -1.789  0.9563 -0.1746  0.2344
              Bcc     0.0218    11.635     4.152     3.881  0.1454  0.9799  0.1369
 

 ---------------------------------------------------------------------------------

 No NMR shielding tensors so no spin-rotation constants.
 Leave Link  601 at Mon Jun  9 15:31:34 2025, MaxMem=  268435456 cpu:       1.1
 (Enter /soft/g09.c01/g09/l701.exe)
 Compute integral second derivatives.
 ... and contract with generalized density number  0.
 Leave Link  701 at Mon Jun  9 15:31:34 2025, MaxMem=  268435456 cpu:       0.9
 (Enter /soft/g09.c01/g09/l702.exe)
 L702 exits ... SP integral derivatives will be done elsewhere.
 Leave Link  702 at Mon Jun  9 15:31:34 2025, MaxMem=  268435456 cpu:       0.0
 (Enter /soft/g09.c01/g09/l703.exe)
 Compute integral second derivatives, UseDBF=F ICtDFT=           0.
 Integral derivatives from FoFDir, PRISM(SPDF).
 Calling FoFJK, ICntrl=    100127 FMM=F ISym2X=0 I1Cent= 0 IOpClX= 1 NMat=1 NMatS=1 NMatT=0.
 FoFCou: FMM=F IPFlag=           0 FMFlag=      100000 FMFlg1=         800
         NFxFlg=           0 DoJE=F BraDBF=F KetDBF=F FulRan=T
         Omega=  0.000000  0.000000  1.000000  0.000000  0.000000 ICntrl=  100127 IOpCl=  1
         NMat0=    1 NMatS0=    1 NMatT0=    0 NMatD0=    1 NMtDS0=    0 NMtDT0=    0
         I1Cent=           0 NGrid=           0.
 Symmetry not used in FoFCou.
 Leave Link  703 at Mon Jun  9 15:31:41 2025, MaxMem=  268435456 cpu:      45.0
 (Enter /soft/g09.c01/g09/l716.exe)
 Dipole        = 4.70444862D-01 1.40102804D-02 1.83881757D-01
 Polarizability= 3.55098779D+01-7.05577647D-01 2.85418793D+01
                 1.80207818D-01 1.40031170D-01 2.21266930D+01
 Full mass-weighted force constant matrix:
 Low frequencies ---   -0.0030   -0.0023    0.0013    9.7722   19.3517   25.2554
 Low frequencies ---   88.2307  390.0269  759.8254
 Harmonic frequencies (cm**-1), IR intensities (KM/Mole), Raman scattering
 activities (A**4/AMU), depolarization ratios for plane and unpolarized
 incident light, reduced masses (AMU), force constants (mDyne/A),
 and normal coordinates:
                     1                      2                      3
                     A                      A                      A
 Frequencies --    88.1203               390.0268               759.8251
 Red. masses --     1.1830                 6.0260                16.0756
 Frc consts  --     0.0054                 0.5401                 5.4682
 IR Inten    --   109.4198                26.9693               187.1799
  Atom  AN      X      Y      Z        X      Y      Z        X      Y      Z
     1  16     0.00   0.02   0.03     0.01   0.18  -0.02     0.33   0.25  -0.02
     2   8     0.00   0.00  -0.08     0.28  -0.18   0.05    -0.71  -0.38   0.05
     3   8    -0.03  -0.02  -0.04    -0.34  -0.18   0.02     0.02  -0.10   0.01
     4   1     0.26  -0.26   0.92     0.72   0.00  -0.42     0.28  -0.20  -0.24
                     4                      5                      6
                     A                      A                      A
 Frequencies --  1084.2245              1182.5250              3724.9559
 Red. masses --     1.3493                 5.9847                 1.0655
 Frc consts  --     0.9345                 4.9308                 8.7102
 IR Inten    --    14.8050               115.3715                97.3371
  Atom  AN      X      Y      Z        X      Y      Z        X      Y      Z
     1  16     0.05   0.01   0.01    -0.15   0.19   0.00     0.00   0.00   0.00
     2   8     0.05  -0.06  -0.02     0.05  -0.04  -0.02     0.00   0.06   0.02
     3   8    -0.09   0.05   0.00     0.31  -0.33   0.01     0.00   0.00   0.00
     4   1    -0.96  -0.19   0.15    -0.83  -0.15   0.11     0.08  -0.96  -0.27

 -------------------
 - Thermochemistry -
 -------------------
 Temperature   298.150 Kelvin.  Pressure   1.00000 Atm.
 Atom     1 has atomic number 16 and mass  31.97207
 Atom     2 has atomic number  8 and mass  15.99491
 Atom     3 has atomic number  8 and mass  15.99491
 Atom     4 has atomic number  1 and mass   1.00783
 Molecular mass:    64.96973 amu.
 Principal axes and moments of inertia in atomic units:
                           1         2         3
     Eigenvalues --    52.23660 190.77115 242.42631
           X            0.99927   0.03778   0.00585
           Y           -0.03789   0.99910   0.01930
           Z           -0.00512  -0.01951   0.99980
 This molecule is an asymmetric top.
 Rotational symmetry number  1.
 Rotational temperatures (Kelvin)      1.65811     0.45402     0.35728
 Rotational constants (GHZ):          34.54936     9.46024     7.44449
 Zero-point vibrational energy      43243.1 (Joules/Mol)
                                   10.33534 (Kcal/Mol)
 Warning -- explicit consideration of   2 degrees of freedom as
           vibrations may cause significant error
 Vibrational temperatures:    126.79   561.16  1093.22  1559.96  1701.39
          (Kelvin)           5359.37
 
 Zero-point correction=                           0.016470 (Hartree/Particle)
 Thermal correction to Energy=                    0.020515
 Thermal correction to Enthalpy=                  0.021459
 Thermal correction to Gibbs Free Energy=        -0.010504
 Sum of electronic and zero-point Energies=           -549.277390
 Sum of electronic and thermal Energies=              -549.273346
 Sum of electronic and thermal Enthalpies=            -549.272401
 Sum of electronic and thermal Free Energies=         -549.304364
 
                     E (Thermal)             CV                S
                      KCal/Mol        Cal/Mol-Kelvin    Cal/Mol-Kelvin
 Total                   12.873             10.640             67.271
 Electronic               0.000              0.000              1.377
 Translational            0.889              2.981             38.433
 Rotational               0.889              2.981             22.406
 Vibrational             11.096              4.679              5.055
 Vibration     1          0.601              1.958              3.701
 Vibration     2          0.758              1.491              1.000
                       Q            Log10(Q)             Ln(Q)
 Total Bot       0.678074D+05          4.831277         11.124427
 Total V=0       0.255345D+13         12.407127         28.568466
 Vib (Bot)       0.936150D-07         -7.028655        -16.184075
 Vib (Bot)    1  0.233399D+01          0.368099          0.847578
 Vib (Bot)    2  0.460296D+00         -0.336963         -0.775886
 Vib (V=0)       0.352529D+01          0.547195          1.259964
 Vib (V=0)    1  0.288694D+01          0.460438          1.060198
 Vib (V=0)    2  0.117961D+01          0.071739          0.165185
 Electronic      0.200000D+01          0.301030          0.693147
 Translational   0.205836D+08          7.313522         16.840006
 Rotational      0.175946D+05          4.245380          9.775349
 
                                                             b3lyp_631Gdp
                                                             IR Spectrum
 
     3                                                                                      1   1                                    
     7                                                                                      1   0          7           3             
     2                                                                                      8   8          6           9         8   
     5                                                                                      3   4          0           0         8   
 
     X                                                                                      X   X          X           X         X   
     X                                                                                      X   X          X           X         X   
     X                                                                                      X              X           X         X   
     X                                                                                      X              X                     X   
     X                                                                                      X              X                     X   
     X                                                                                      X              X                     X   
     X                                                                                      X              X                     X   
     X                                                                                      X              X                     X   
     X                                                                                      X              X                     X   
     X                                                                                      X              X                     X   
                                                                                            X              X                     X   
                                                                                            X              X                     X   
                                                                                                           X                         
                                                                                                           X                         
                                                                                                           X                         
                                                                                                           X                         
                                                                                                           X                         
                                                                                                           X                         
                                                                                                           X                         
                                                                                                           X                         
 
 ***** Axes restored to original set *****
 -------------------------------------------------------------------
 Center     Atomic                   Forces (Hartrees/Bohr)
 Number     Number              X              Y              Z
 -------------------------------------------------------------------
      1       16           0.000009715    0.000004045   -0.000014766
      2        8           0.000002267    0.000019306   -0.000006853
      3        8           0.000003844   -0.000017739    0.000010032
      4        1          -0.000015826   -0.000005612    0.000011587
 -------------------------------------------------------------------
 Cartesian Forces:  Max     0.000019306 RMS     0.000011547
 Force constants in Cartesian coordinates: 
                1             2             3             4             5 
      1  0.455001D+00
      2 -0.136171D+00  0.447973D+00
      3  0.166041D-02 -0.110410D-01  0.288884D-02
      4 -0.154213D+00 -0.471365D-01  0.121815D-01  0.220158D+00
      5 -0.105282D+00 -0.120258D+00  0.333368D-02  0.142391D-01  0.535041D+00
      6  0.627258D-02 -0.226665D-02 -0.300016D-02 -0.287209D-01  0.129658D+00
      7 -0.289103D+00  0.229007D+00 -0.717355D-02 -0.312085D-01  0.231793D-01
      8  0.249748D+00 -0.309985D+00  0.102925D-01 -0.202724D-02  0.285861D-01
      9 -0.685691D-02  0.122116D-01 -0.105109D-02 -0.557039D-03 -0.213481D-02
     10 -0.116857D-01 -0.456989D-01 -0.666833D-02 -0.347369D-01  0.678638D-01
     11 -0.829430D-02 -0.177293D-01 -0.258526D-02  0.349246D-01 -0.443369D+00
     12 -0.107608D-02  0.109600D-02  0.116241D-02  0.170964D-01 -0.130857D+00
                6             7             8             9            10 
      6  0.417039D-01
      7 -0.544684D-03  0.314849D+00
      8 -0.433306D-03 -0.256427D+00  0.280048D+00
      9  0.630611D-03  0.705328D-02 -0.100839D-01  0.768359D-03
     10  0.229930D-01  0.546227D-02  0.870701D-02  0.360668D-03  0.409603D-01
     11 -0.126958D+00  0.424154D-02  0.135062D-02  0.711028D-05 -0.308719D-01
     12 -0.393344D-01  0.664947D-03  0.224672D-03 -0.347880D-03 -0.166853D-01
               11            12 
     11  0.459748D+00
     12  0.129536D+00  0.385199D-01
 Force constants in internal coordinates: 
                1             2             3             4             5 
      1  0.243872D+00
      2  0.211846D-01  0.554504D+00
      3  0.822749D-02 -0.231274D-02  0.498684D+00
      4 -0.172859D-01  0.316842D-01 -0.823797D-02  0.315882D+00
      5  0.420773D-01  0.348974D-02  0.203573D-01 -0.525809D-01  0.135091D+00
      6  0.909673D-03  0.106869D-02  0.116769D-03 -0.592139D-02 -0.426636D-02
                6 
      6  0.116478D-02
 Leave Link  716 at Mon Jun  9 15:31:41 2025, MaxMem=  268435456 cpu:       0.1
 (Enter /soft/g09.c01/g09/l103.exe)

 GradGradGradGradGradGradGradGradGradGradGradGradGradGradGradGradGradGrad
 Berny optimization.
 Red2BG is reusing G-inverse.
 Internal  Forces:  Max     0.000016320 RMS     0.000009587
 Search for a local minimum.
 Step number   1 out of a maximum of    2
 All quantities printed in internal units (Hartrees-Bohrs-Radians)
 Second derivative matrix not updated -- analytic derivatives used.
 The second derivative matrix:
                          R1        R2        R3        A1        A2
           R1           0.24387
           R2           0.02118   0.55450
           R3           0.00823  -0.00231   0.49868
           A1          -0.01729   0.03168  -0.00824   0.31588
           A2           0.04208   0.00349   0.02036  -0.05258   0.13509
           D1           0.00091   0.00107   0.00012  -0.00592  -0.00427
                          D1
           D1           0.00116
 ITU=  0
     Eigenvalues ---    0.00080   0.11048   0.24191   0.33518   0.50093
     Eigenvalues ---    0.55990
 Angle between quadratic step and forces=  73.54 degrees.
 Linear search not attempted -- first point.
 Iteration  1 RMS(Cart)=  0.00020755 RMS(Int)=  0.00000004
 Iteration  2 RMS(Cart)=  0.00000003 RMS(Int)=  0.00000000
 Variable       Old X    -DE/DX   Delta X   Delta X   Delta X     New X
                                 (Linear)    (Quad)   (Total)
    R1        3.10920  -0.00001   0.00000  -0.00001  -0.00001   3.10919
    R2        2.78295  -0.00001   0.00000  -0.00001  -0.00001   2.78295
    R3        1.83355  -0.00001   0.00000  -0.00002  -0.00002   1.83353
    A1        1.90423  -0.00001   0.00000  -0.00006  -0.00006   1.90417
    A2        1.90645  -0.00002   0.00000  -0.00015  -0.00015   1.90630
    D1        0.34307   0.00000   0.00000  -0.00042  -0.00042   0.34265
         Item               Value     Threshold  Converged?
 Maximum Force            0.000016     0.000450     YES
 RMS     Force            0.000010     0.000300     YES
 Maximum Displacement     0.000306     0.001800     YES
 RMS     Displacement     0.000208     0.001200     YES
 Predicted change in Energy=-1.484382D-09
 Optimization completed.
    -- Stationary point found.
                           ----------------------------
                           !   Optimized Parameters   !
                           ! (Angstroms and Degrees)  !
 --------------------------                            --------------------------
 ! Name  Definition              Value          Derivative Info.                !
 --------------------------------------------------------------------------------
 ! R1    R(1,2)                  1.6453         -DE/DX =    0.0                 !
 ! R2    R(1,3)                  1.4727         -DE/DX =    0.0                 !
 ! R3    R(2,4)                  0.9703         -DE/DX =    0.0                 !
 ! A1    A(2,1,3)              109.1043         -DE/DX =    0.0                 !
 ! A2    A(1,2,4)              109.2316         -DE/DX =    0.0                 !
 ! D1    D(3,1,2,4)             19.6564         -DE/DX =    0.0                 !
 --------------------------------------------------------------------------------
 GradGradGradGradGradGradGradGradGradGradGradGradGradGradGradGradGradGrad

 Leave Link  103 at Mon Jun  9 15:31:41 2025, MaxMem=  268435456 cpu:       0.0
 (Enter /soft/g09.c01/g09/l9999.exe)

 Test job not archived.
 1\1\ CPUSERV-QCEXNOD03\Freq\UB3LYP\6-311+G(3df)\H1O2S1(2)\ROOT\09-Jun-
 2025\0\\#P Geom=AllCheck Guess=TCheck SCRF=Check Test GenChk UB3LYP/6-
 311+G(3df) Freq\\b3lyp_631Gdp\\0,2\S,-0.14317,-0.477675,0.014424\O,1.3
 28478,0.2561,-0.039462\O,-1.196263,0.551268,-0.017893\H,1.232996,1.183
 862,0.228065\\Version=EM64L-G09RevC.01\State=2-A\HF=-549.2938606\S2=0.
 755247\S2-1=0.\S2A=0.750019\RMSD=1.110e-09\RMSF=1.155e-05\ZeroPoint=0.
 0164704\Thermal=0.0205151\Dipole=0.4704449,0.0140105,0.1838818\DipoleD
 eriv=1.6366305,0.2031938,-0.0028757,0.1640701,0.8354938,-0.0275411,-0.
 0321797,-0.0347601,0.2872448,-1.12605,-0.2906906,-0.0270602,-0.6448023
 ,-0.5603001,0.0412929,0.0081273,0.0419955,-0.3238262,-0.7430855,0.0251
 017,-0.004031,0.3806117,-0.5633037,0.0038854,0.0032894,0.0097144,-0.28
 14999,0.232505,0.0623951,0.033967,0.1001205,0.28811,-0.0176372,0.02076
 3,-0.0169499,0.3180812\Polar=35.5098787,-0.7055739,28.5418785,0.180207
 7,0.1400313,22.126693\PG=C01 [X(H1O2S1)]\NImag=0\\0.45500121,-0.136171
 19,0.44797268,0.00166041,-0.01104096,0.00288884,-0.15421285,-0.0471364
 5,0.01218147,0.22015825,-0.10528210,-0.12025844,0.00333368,0.01423908,
 0.53504144,0.00627258,-0.00226665,-0.00300016,-0.02872087,0.12965776,0
 .04170393,-0.28910263,0.22900656,-0.00717355,-0.03120854,0.02317927,-0
 .00054468,0.31484890,0.24974759,-0.30998496,0.01029254,-0.00202724,0.0
 2858608,-0.00043331,-0.25642736,0.28004825,-0.00685691,0.01221161,-0.0
 0105109,-0.00055704,-0.00213481,0.00063061,0.00705328,-0.01008391,0.00
 076836,-0.01168573,-0.04569892,-0.00666833,-0.03473686,0.06786375,0.02
 299297,0.00546227,0.00870701,0.00036067,0.04096032,-0.00829430,-0.0177
 2928,-0.00258526,0.03492462,-0.44336908,-0.12695781,0.00424154,0.00135
 062,0.00000711,-0.03087185,0.45974775,-0.00107608,0.00109600,0.0011624
 1,0.01709644,-0.13085663,-0.03933438,0.00066495,0.00022467,-0.00034788
 ,-0.01668530,0.12953597,0.03851986\\-0.00000971,-0.00000405,0.00001477
 ,-0.00000227,-0.00001931,0.00000685,-0.00000384,0.00001774,-0.00001003
 ,0.00001583,0.00000561,-0.00001159\\\@


 MICRO CREDO - NEVER TRUST A COMPUTER BIGGER
               BIGGER THAN YOU CAN LIFT.
 Job cpu time:  0 days  0 hours  1 minutes 52.5 seconds.
 File lengths (MBytes):  RWF=     20 Int=      0 D2E=      0 Chk=      2 Scr=      1
 Normal termination of Gaussian 09 at Mon Jun  9 15:31:41 2025.
