 Entering Gaussian System, Link 0=g16
 Initial command:
 /soft/g16.a03/g16/l1.exe "/scr/macias/296035.qcexmaster.qcexval.uv.es_vib5_-0.30/Gau-16110.inp" -scrdir="/scr/macias/296035.qcexmaster.qcexval.uv.es_vib5_-0.30/"
 Entering Link 1 = /soft/g16.a03/g16/l1.exe PID=     16112.
  
 Copyright (c) 1988,1990,1992,1993,1995,1998,2003,2009,2016,
            Gaussian, Inc.  All Rights Reserved.
  
 This is part of the Gaussian(R) 16 program.  It is based on
 the Gaussian(R) 09 system (copyright 2009, Gaussian, Inc.),
 the Gaussian(R) 03 system (copyright 2003, Gaussian, Inc.),
 the Gaussian(R) 98 system (copyright 1998, Gaussian, Inc.),
 the Gaussian(R) 94 system (copyright 1995, Gaussian, Inc.),
 the Gaussian 92(TM) system (copyright 1992, Gaussian, Inc.),
 the Gaussian 90(TM) system (copyright 1990, Gaussian, Inc.),
 the Gaussian 88(TM) system (copyright 1988, Gaussian, Inc.),
 the Gaussian 86(TM) system (copyright 1986, Carnegie Mellon
 University), and the Gaussian 82(TM) system (copyright 1983,
 Carnegie Mellon University). Gaussian is a federally registered
 trademark of Gaussian, Inc.
  
 This software contains proprietary and confidential information,
 including trade secrets, belonging to Gaussian, Inc.
  
 This software is provided under written license and may be
 used, copied, transmitted, or stored only in accord with that
 written license.
  
 The following legend is applicable only to US Government
 contracts under FAR:
  
                    RESTRICTED RIGHTS LEGEND
  
 Use, reproduction and disclosure by the US Government is
 subject to restrictions as set forth in subparagraphs (a)
 and (c) of the Commercial Computer Software - Restricted
 Rights clause in FAR 52.227-19.
  
 Gaussian, Inc.
 340 Quinnipiac St., Bldg. 40, Wallingford CT 06492
  
  
 ---------------------------------------------------------------
 Warning -- This program may not be used in any manner that
 competes with the business of Gaussian, Inc. or will provide
 assistance to any competitor of Gaussian, Inc.  The licensee
 of this program is prohibited from giving any competitor of
 Gaussian, Inc. access to this program.  By using this program,
 the user acknowledges that Gaussian, Inc. is engaged in the
 business of creating and licensing software in the field of
 computational chemistry and represents and warrants to the
 licensee that it is not a competitor of Gaussian, Inc. and that
 it will not use this program in any manner prohibited above.
 ---------------------------------------------------------------
  

 Cite this work as:
 Gaussian 16, Revision A.03,
 M. J. Frisch, G. W. Trucks, H. B. Schlegel, G. E. Scuseria, 
 M. A. Robb, J. R. Cheeseman, G. Scalmani, V. Barone, 
 G. A. Petersson, H. Nakatsuji, X. Li, M. Caricato, A. V. Marenich, 
 J. Bloino, B. G. Janesko, R. Gomperts, B. Mennucci, H. P. Hratchian, 
 J. V. Ortiz, A. F. Izmaylov, J. L. Sonnenberg, D. Williams-Young, 
 F. Ding, F. Lipparini, F. Egidi, J. Goings, B. Peng, A. Petrone, 
 T. Henderson, D. Ranasinghe, V. G. Zakrzewski, J. Gao, N. Rega, 
 G. Zheng, W. Liang, M. Hada, M. Ehara, K. Toyota, R. Fukuda, 
 J. Hasegawa, M. Ishida, T. Nakajima, Y. Honda, O. Kitao, H. Nakai, 
 T. Vreven, K. Throssell, J. A. Montgomery, Jr., J. E. Peralta, 
 F. Ogliaro, M. J. Bearpark, J. J. Heyd, E. N. Brothers, K. N. Kudin, 
 V. N. Staroverov, T. A. Keith, R. Kobayashi, J. Normand, 
 K. Raghavachari, A. P. Rendell, J. C. Burant, S. S. Iyengar, 
 J. Tomasi, M. Cossi, J. M. Millam, M. Klene, C. Adamo, R. Cammi, 
 J. W. Ochterski, R. L. Martin, K. Morokuma, O. Farkas, 
 J. B. Foresman, and D. J. Fox, Gaussian, Inc., Wallingford CT, 2016.
 
 ******************************************
 Gaussian 16:  ES64L-G16RevA.03 25-Dec-2016
                16-Jul-2026 
 ******************************************
 %chk=opt_freq.chk
 %nproc=2
 Will use up to    2 processors via shared memory.
 %mem=2GB
 ----------------------
 #sp b3lyp/6-311+G(3df)
 ----------------------
 1/38=1,172=1/1;
 2/12=2,17=6,18=5,40=1/2;
 3/5=4,6=6,7=16,11=2,25=1,30=1,74=-5/1,2,3;
 4//1;
 5/5=2,38=5/2;
 6/7=2,8=2,9=2,10=2,28=1/1;
 99/5=1,9=1/99;
 --------------------
 single point of HOSO
 --------------------
 Symbolic Z-matrix:
 Charge =  0 Multiplicity = 2
 S                    -0.09817  -0.53468   0.01442 
 O                     1.31348   0.2681   -0.03346 
 O                    -1.28926   0.65027  -0.02089 
 H                     1.482     1.22886   0.19507 
 
                          Input orientation:                          
 ---------------------------------------------------------------------
 Center     Atomic      Atomic             Coordinates (Angstroms)
 Number     Number       Type             X           Y           Z
 ---------------------------------------------------------------------
      1         16           0       -0.098170   -0.534675    0.014424
      2          8           0        1.313478    0.268099   -0.033462
      3          8           0       -1.289263    0.650268   -0.020893
      4          1           0        1.481997    1.228861    0.195065
 ---------------------------------------------------------------------
                    Distance matrix (angstroms):
                    1          2          3          4
     1  S    0.000000
     2  O    1.624650   0.000000
     3  O    1.680488   2.630679   0.000000
     4  H    2.374788   1.001842   2.839241   0.000000
 Stoichiometry    HO2S(2)
 Framework group  C1[X(HO2S)]
 Deg. of freedom     6
 Full point group                 C1      NOp   1
 Largest Abelian subgroup         C1      NOp   1
 Largest concise Abelian subgroup C1      NOp   1
                         Standard orientation:                         
 ---------------------------------------------------------------------
 Center     Atomic      Atomic             Coordinates (Angstroms)
 Number     Number       Type             X           Y           Z
 ---------------------------------------------------------------------
      1         16           0       -0.067383   -0.540706    0.011959
      2          8           0        1.290695    0.349636   -0.037095
      3          8           0       -1.330859    0.567050   -0.011372
      4          1           0        1.399434    1.317802    0.196394
 ---------------------------------------------------------------------
 Rotational constants (GHZ):          27.8485305           8.8327770           6.7168397
 Standard basis: 6-311+G(3df) (5D, 7F)
 There are   146 symmetry adapted cartesian basis functions of A   symmetry.
 There are   128 symmetry adapted basis functions of A   symmetry.
   128 basis functions,   193 primitive gaussians,   146 cartesian basis functions
    17 alpha electrons       16 beta electrons
       nuclear repulsion energy       104.1543735145 Hartrees.
 NAtoms=    4 NActive=    4 NUniq=    4 SFac= 1.00D+00 NAtFMM=   60 NAOKFM=F Big=F
 Integral buffers will be    131072 words long.
 Raffenetti 2 integral format.
 Two-electron integral symmetry is turned on.
 One-electron integrals computed using PRISM.
 NBasis=   128 RedAO= T EigKep=  1.42D-03  NBF=   128
 NBsUse=   128 1.00D-06 EigRej= -1.00D+00 NBFU=   128
 ExpMin= 4.05D-02 ExpMax= 9.34D+04 ExpMxC= 3.17D+03 IAcc=3 IRadAn=         5 AccDes= 0.00D+00
 Harris functional with IExCor=  402 and IRadAn=       5 diagonalized for initial guess.
 HarFok:  IExCor=  402 AccDes= 0.00D+00 IRadAn=         5 IDoV= 1 UseB2=F ITyADJ=14
 ICtDFT=  3500011 ScaDFX=  1.000000  1.000000  1.000000  1.000000
 FoFCou: FMM=F IPFlag=           0 FMFlag=      100000 FMFlg1=           0
         NFxFlg=           0 DoJE=T BraDBF=F KetDBF=T FulRan=T
         wScrn=  0.000000 ICntrl=       500 IOpCl=  0 I1Cent=   200000004 NGrid=           0
         NMat0=    1 NMatS0=      1 NMatT0=    0 NMatD0=    1 NMtDS0=    0 NMtDT0=    0
 Petite list used in FoFCou.
 Initial guess <Sx>= 0.0000 <Sy>= 0.0000 <Sz>= 0.5000 <S**2>= 0.7500 S= 0.5000
 Keep R1 and R2 ints in memory in canonical form, NReq=70152477.
 Requested convergence on RMS density matrix=1.00D-08 within 128 cycles.
 Requested convergence on MAX density matrix=1.00D-06.
 Requested convergence on             energy=1.00D-06.
 No special actions if energy rises.
 EnCoef did     2 forward-backward iterations
 EnCoef did     3 forward-backward iterations
 SCF Done:  E(UB3LYP) =  -549.258288652     A.U. after   16 cycles
            NFock= 16  Conv=0.44D-08     -V/T= 2.0026
 <Sx>= 0.0000 <Sy>= 0.0000 <Sz>= 0.5000 <S**2>= 0.7565 S= 0.5033
 <L.S>= 0.000000000000E+00
 Annihilation of the first spin contaminant:
 S**2 before annihilation     0.7565,   after     0.7500

 **********************************************************************

            Population analysis using the SCF density.

 **********************************************************************

 Orbital symmetries:
 Alpha Orbitals:
       Occupied  (A) (A) (A) (A) (A) (A) (A) (A) (A) (A) (A) (A)
                 (A) (A) (A) (A) (A)
       Virtual   (A) (A) (A) (A) (A) (A) (A) (A) (A) (A) (A) (A)
                 (A) (A) (A) (A) (A) (A) (A) (A) (A) (A) (A) (A)
                 (A) (A) (A) (A) (A) (A) (A) (A) (A) (A) (A) (A)
                 (A) (A) (A) (A) (A) (A) (A) (A) (A) (A) (A) (A)
                 (A) (A) (A) (A) (A) (A) (A) (A) (A) (A) (A) (A)
                 (A) (A) (A) (A) (A) (A) (A) (A) (A) (A) (A) (A)
                 (A) (A) (A) (A) (A) (A) (A) (A) (A) (A) (A) (A)
                 (A) (A) (A) (A) (A) (A) (A) (A) (A) (A) (A) (A)
                 (A) (A) (A) (A) (A) (A) (A) (A) (A) (A) (A) (A)
                 (A) (A) (A)
 Beta  Orbitals:
       Occupied  (A) (A) (A) (A) (A) (A) (A) (A) (A) (A) (A) (A)
                 (A) (A) (A) (A)
       Virtual   (A) (A) (A) (A) (A) (A) (A) (A) (A) (A) (A) (A)
                 (A) (A) (A) (A) (A) (A) (A) (A) (A) (A) (A) (A)
                 (A) (A) (A) (A) (A) (A) (A) (A) (A) (A) (A) (A)
                 (A) (A) (A) (A) (A) (A) (A) (A) (A) (A) (A) (A)
                 (A) (A) (A) (A) (A) (A) (A) (A) (A) (A) (A) (A)
                 (A) (A) (A) (A) (A) (A) (A) (A) (A) (A) (A) (A)
                 (A) (A) (A) (A) (A) (A) (A) (A) (A) (A) (A) (A)
                 (A) (A) (A) (A) (A) (A) (A) (A) (A) (A) (A) (A)
                 (A) (A) (A) (A) (A) (A) (A) (A) (A) (A) (A) (A)
                 (A) (A) (A) (A)
 The electronic state is 2-A.
 Alpha  occ. eigenvalues --  -88.99616 -19.20124 -19.16708  -8.06658  -6.03122
 Alpha  occ. eigenvalues --   -6.02693  -6.02535  -1.09470  -0.98143  -0.73483
 Alpha  occ. eigenvalues --   -0.55270  -0.46093  -0.45702  -0.39260  -0.37017
 Alpha  occ. eigenvalues --   -0.32257  -0.25545
 Alpha virt. eigenvalues --   -0.05920  -0.02724   0.01021   0.03516   0.04757
 Alpha virt. eigenvalues --    0.06656   0.09491   0.15282   0.16274   0.17067
 Alpha virt. eigenvalues --    0.18317   0.21112   0.22158   0.25060   0.25972
 Alpha virt. eigenvalues --    0.27490   0.28087   0.30192   0.31019   0.31139
 Alpha virt. eigenvalues --    0.32446   0.37457   0.45622   0.54514   0.70156
 Alpha virt. eigenvalues --    0.73276   0.78615   0.80047   0.84961   0.85867
 Alpha virt. eigenvalues --    0.88967   0.89788   0.90350   0.92977   0.95817
 Alpha virt. eigenvalues --    0.99895   1.00226   1.02976   1.03233   1.07421
 Alpha virt. eigenvalues --    1.12071   1.12721   1.14570   1.25183   1.31099
 Alpha virt. eigenvalues --    1.33441   1.57423   1.58444   1.60759   1.69368
 Alpha virt. eigenvalues --    1.82380   1.92888   1.93565   1.94609   2.01598
 Alpha virt. eigenvalues --    2.05991   2.19317   2.23857   2.30599   3.28537
 Alpha virt. eigenvalues --    3.31719   3.36634   3.38119   3.40341   3.43825
 Alpha virt. eigenvalues --    3.44375   3.52375   3.55082   3.59098   4.41732
 Alpha virt. eigenvalues --    4.43750   4.46235   4.58011   4.62605   4.89219
 Alpha virt. eigenvalues --    4.92553   4.93333   4.93690   4.95519   4.96308
 Alpha virt. eigenvalues --    5.00947   5.02158   5.02593   5.06611   5.07204
 Alpha virt. eigenvalues --    5.26020   5.30384   5.38574   5.39787   5.40491
 Alpha virt. eigenvalues --    5.47535   5.50890   5.68852   6.32352   8.29337
 Alpha virt. eigenvalues --   14.18603  14.20494  14.23249  14.24665  14.26206
 Alpha virt. eigenvalues --   14.28405  14.33386  14.35553  14.44357  14.45677
 Alpha virt. eigenvalues --   17.19913  17.41756  17.50955  49.87372  49.90895
 Alpha virt. eigenvalues --  189.26615
  Beta  occ. eigenvalues --  -88.99266 -19.19857 -19.15425  -8.06343  -6.02942
  Beta  occ. eigenvalues --   -6.02384  -6.01559  -1.08763  -0.95597  -0.71649
  Beta  occ. eigenvalues --   -0.54059  -0.45465  -0.43051  -0.37863  -0.31446
  Beta  occ. eigenvalues --   -0.31086
  Beta virt. eigenvalues --   -0.13876  -0.05311  -0.01796   0.01293   0.03917
  Beta virt. eigenvalues --    0.04968   0.06755   0.09648   0.15498   0.16580
  Beta virt. eigenvalues --    0.17381   0.19463   0.21448   0.22270   0.25271
  Beta virt. eigenvalues --    0.26923   0.28046   0.28804   0.30633   0.32013
  Beta virt. eigenvalues --    0.32255   0.32544   0.38066   0.45778   0.54763
  Beta virt. eigenvalues --    0.70645   0.73784   0.79175   0.80870   0.85501
  Beta virt. eigenvalues --    0.86879   0.90055   0.91238   0.91544   0.93283
  Beta virt. eigenvalues --    0.96728   1.00573   1.02338   1.03403   1.03644
  Beta virt. eigenvalues --    1.07907   1.12731   1.14449   1.15831   1.25467
  Beta virt. eigenvalues --    1.32185   1.33807   1.59615   1.60440   1.62139
  Beta virt. eigenvalues --    1.70728   1.83496   1.93777   1.94839   1.96912
  Beta virt. eigenvalues --    2.01942   2.06206   2.19726   2.24471   2.30785
  Beta virt. eigenvalues --    3.29456   3.33218   3.38246   3.40848   3.42196
  Beta virt. eigenvalues --    3.45311   3.47260   3.53135   3.55864   3.60113
  Beta virt. eigenvalues --    4.42124   4.44163   4.47090   4.58929   4.62820
  Beta virt. eigenvalues --    4.90014   4.93515   4.94416   4.95890   4.97004
  Beta virt. eigenvalues --    4.98749   5.02250   5.05147   5.05291   5.08434
  Beta virt. eigenvalues --    5.08542   5.26646   5.31140   5.40068   5.40935
  Beta virt. eigenvalues --    5.41457   5.48824   5.51420   5.69494   6.32867
  Beta virt. eigenvalues --    8.29785  14.19861  14.22582  14.26212  14.27954
  Beta virt. eigenvalues --   14.29422  14.33223  14.34228  14.35953  14.44947
  Beta virt. eigenvalues --   14.47936  17.21392  17.41987  17.51222  49.87780
  Beta virt. eigenvalues --   49.92028 189.26932
          Condensed to atoms (all electrons):
               1          2          3          4
     1  S   15.229448   0.022170   0.222224   0.004441
     2  O    0.022170   8.355225  -0.005654   0.192618
     3  O    0.222224  -0.005654   8.218880   0.001461
     4  H    0.004441   0.192618   0.001461   0.321929
          Atomic-Atomic Spin Densities.
               1          2          3          4
     1  S    0.726328  -0.082180  -0.132679  -0.000916
     2  O   -0.082180   0.134874   0.014575  -0.002221
     3  O   -0.132679   0.014575   0.544653  -0.000648
     4  H   -0.000916  -0.002221  -0.000648   0.002281
 Mulliken charges and spin densities:
               1          2
     1  S    0.521718   0.510554
     2  O   -0.564359   0.065048
     3  O   -0.436911   0.425901
     4  H    0.479552  -0.001503
 Sum of Mulliken charges =  -0.00000   1.00000
 Mulliken charges and spin densities with hydrogens summed into heavy atoms:
               1          2
     1  S    0.521718   0.510554
     2  O   -0.084807   0.063545
     3  O   -0.436911   0.425901
 Electronic spatial extent (au):  <R**2>=            194.4296
 Charge=             -0.0000 electrons
 Dipole moment (field-independent basis, Debye):
    X=              2.2328    Y=             -0.0524    Z=              0.4364  Tot=              2.2756
 Quadrupole moment (field-independent basis, Debye-Ang):
   XX=            -26.8778   YY=            -20.3763   ZZ=            -24.3160
   XY=              4.1115   XZ=              0.6901   YZ=              0.6865
 Traceless Quadrupole moment (field-independent basis, Debye-Ang):
   XX=             -3.0211   YY=              3.4804   ZZ=             -0.4593
   XY=              4.1115   XZ=              0.6901   YZ=              0.6865
 Octapole moment (field-independent basis, Debye-Ang**2):
  XXX=              5.9078  YYY=              5.8976  ZZZ=             -0.0079  XYY=              6.2328
  XXY=              2.9486  XXZ=              0.9131  XZZ=              0.5800  YZZ=              1.0407
  YYZ=              0.9037  XYZ=              0.9548
 Hexadecapole moment (field-independent basis, Debye-Ang**3):
 XXXX=           -156.0140 YYYY=            -57.8933 ZZZZ=            -26.5899 XXXY=              9.1849
 XXXZ=              1.5773 YYYX=             10.1740 YYYZ=              1.3957 ZZZX=              0.3571
 ZZZY=              0.4232 XXYY=            -27.2216 XXZZ=            -29.8894 YYZZ=            -15.7675
 XXYZ=              1.4222 YYXZ=              1.3412 ZZXY=              0.5296
 N-N= 1.041543735145D+02 E-N=-1.511993947731D+03  KE= 5.478240548839D+02
                          Isotropic Fermi Contact Couplings
        Atom                 a.u.       MegaHertz       Gauss      10(-4) cm-1
     1  S(33)              0.04332      14.87823       5.30892       4.96284
     2  O(17)              0.01530      -9.27329      -3.30894      -3.09324
     3  O(17)              0.03340     -20.24524      -7.22401      -6.75309
     4  H(1)              -0.00042      -1.86210      -0.66444      -0.62113
 --------------------------------------------------------
       Center         ----  Spin Dipole Couplings  ----
                      3XX-RR        3YY-RR        3ZZ-RR
 --------------------------------------------------------
     1   Atom       -1.363401     -1.451492      2.814893
     2   Atom       -0.244567     -0.204432      0.448999
     3   Atom       -0.978671     -0.975852      1.954524
     4   Atom       -0.008495      0.017096     -0.008600
 --------------------------------------------------------
                        XY            XZ            YZ
 --------------------------------------------------------
     1   Atom        0.032951     -0.103624      0.026789
     2   Atom        0.011329      0.012899     -0.093167
     3   Atom        0.000221      0.072190     -0.026709
     4   Atom        0.009178      0.001544      0.003226
 --------------------------------------------------------


 ---------------------------------------------------------------------------------
              Anisotropic Spin Dipole Couplings in Principal Axis System
 ---------------------------------------------------------------------------------

       Atom             a.u.   MegaHertz   Gauss  10(-4) cm-1        Axes

              Baa    -1.4633   -59.992   -21.407   -20.011 -0.3262  0.9452 -0.0138
     1 S(33)  Bbb    -1.3544   -55.528   -19.814   -18.522  0.9450  0.3265  0.0214
              Bcc     2.8176   115.520    41.220    38.533 -0.0247  0.0061  0.9997
 
              Baa    -0.2499    18.086     6.454     6.033  0.9283 -0.3660 -0.0659
     2 O(17)  Bbb    -0.2123    15.358     5.480     5.123  0.3715  0.9203  0.1224
              Bcc     0.4622   -33.445   -11.934   -11.156  0.0159 -0.1381  0.9903
 
              Baa    -0.9806    70.957    25.319    23.669  0.9814 -0.1905 -0.0259
     3 O(17)  Bbb    -0.9759    70.617    25.198    23.555  0.1906  0.9816  0.0043
              Bcc     1.9565  -141.574   -50.517   -47.224  0.0246 -0.0091  0.9997
 
              Baa    -0.0115    -6.156    -2.197    -2.053  0.9415 -0.2808 -0.1864
     4 H(1)   Bbb    -0.0089    -4.770    -1.702    -1.591  0.1420 -0.1709  0.9750
              Bcc     0.0205    10.927     3.899     3.645  0.3056  0.9444  0.1210
 

 ---------------------------------------------------------------------------------

 1\1\GINC-QCEXNOD57\SP\UB3LYP\6-311+G(3df)\H1O2S1(2)\ROOT\16-Jul-2026\0
 \\#sp b3lyp/6-311+G(3df)\\single point of HOSO\\0,2\S,0,-0.09817,-0.53
 4675,0.014424\O,0,1.313478,0.268099,-0.033462\O,0,-1.289263,0.650268,-
 0.020893\H,0,1.481997,1.228861,0.195065\\Version=ES64L-G16RevA.03\Stat
 e=2-A\HF=-549.2582887\S2=0.756549\S2-1=0.\S2A=0.750028\RMSD=4.433e-09\
 Dipole=0.8746767,-0.074854,0.1757966\Quadrupole=-1.8471979,2.1898496,-
 0.3426518,3.3374949,0.5182108,0.4761108\PG=C01 [X(H1O2S1)]\\@


 THE WORLD IS MADE UP OF THE WILLS, THE WON'TS, AND THE CANT'S:
 THE WILLS DO EVERYTHING,
 THE WON'TS DO NOTHING,
 THE CAN'TS CAN'T DO ANYTHING.

                               -- FROM WALT DISNEY'S "BLACK HOLE"
 Job cpu time:       0 days  0 hours  0 minutes 18.1 seconds.
 Elapsed time:       0 days  0 hours  0 minutes  9.4 seconds.
 File lengths (MBytes):  RWF=     16 Int=      0 D2E=      0 Chk=      2 Scr=      1
 Normal termination of Gaussian 16 at Thu Jul 16 14:38:31 2026.
