 Entering Gaussian System, Link 0=g16
 Initial command:
 /soft/g16.a03/g16/l1.exe "/scr/macias/296050.qcexmaster.qcexval.uv.es_vib6_0.40/Gau-16914.inp" -scrdir="/scr/macias/296050.qcexmaster.qcexval.uv.es_vib6_0.40/"
 Entering Link 1 = /soft/g16.a03/g16/l1.exe PID=     16916.
  
 Copyright (c) 1988,1990,1992,1993,1995,1998,2003,2009,2016,
            Gaussian, Inc.  All Rights Reserved.
  
 This is part of the Gaussian(R) 16 program.  It is based on
 the Gaussian(R) 09 system (copyright 2009, Gaussian, Inc.),
 the Gaussian(R) 03 system (copyright 2003, Gaussian, Inc.),
 the Gaussian(R) 98 system (copyright 1998, Gaussian, Inc.),
 the Gaussian(R) 94 system (copyright 1995, Gaussian, Inc.),
 the Gaussian 92(TM) system (copyright 1992, Gaussian, Inc.),
 the Gaussian 90(TM) system (copyright 1990, Gaussian, Inc.),
 the Gaussian 88(TM) system (copyright 1988, Gaussian, Inc.),
 the Gaussian 86(TM) system (copyright 1986, Carnegie Mellon
 University), and the Gaussian 82(TM) system (copyright 1983,
 Carnegie Mellon University). Gaussian is a federally registered
 trademark of Gaussian, Inc.
  
 This software contains proprietary and confidential information,
 including trade secrets, belonging to Gaussian, Inc.
  
 This software is provided under written license and may be
 used, copied, transmitted, or stored only in accord with that
 written license.
  
 The following legend is applicable only to US Government
 contracts under FAR:
  
                    RESTRICTED RIGHTS LEGEND
  
 Use, reproduction and disclosure by the US Government is
 subject to restrictions as set forth in subparagraphs (a)
 and (c) of the Commercial Computer Software - Restricted
 Rights clause in FAR 52.227-19.
  
 Gaussian, Inc.
 340 Quinnipiac St., Bldg. 40, Wallingford CT 06492
  
  
 ---------------------------------------------------------------
 Warning -- This program may not be used in any manner that
 competes with the business of Gaussian, Inc. or will provide
 assistance to any competitor of Gaussian, Inc.  The licensee
 of this program is prohibited from giving any competitor of
 Gaussian, Inc. access to this program.  By using this program,
 the user acknowledges that Gaussian, Inc. is engaged in the
 business of creating and licensing software in the field of
 computational chemistry and represents and warrants to the
 licensee that it is not a competitor of Gaussian, Inc. and that
 it will not use this program in any manner prohibited above.
 ---------------------------------------------------------------
  

 Cite this work as:
 Gaussian 16, Revision A.03,
 M. J. Frisch, G. W. Trucks, H. B. Schlegel, G. E. Scuseria, 
 M. A. Robb, J. R. Cheeseman, G. Scalmani, V. Barone, 
 G. A. Petersson, H. Nakatsuji, X. Li, M. Caricato, A. V. Marenich, 
 J. Bloino, B. G. Janesko, R. Gomperts, B. Mennucci, H. P. Hratchian, 
 J. V. Ortiz, A. F. Izmaylov, J. L. Sonnenberg, D. Williams-Young, 
 F. Ding, F. Lipparini, F. Egidi, J. Goings, B. Peng, A. Petrone, 
 T. Henderson, D. Ranasinghe, V. G. Zakrzewski, J. Gao, N. Rega, 
 G. Zheng, W. Liang, M. Hada, M. Ehara, K. Toyota, R. Fukuda, 
 J. Hasegawa, M. Ishida, T. Nakajima, Y. Honda, O. Kitao, H. Nakai, 
 T. Vreven, K. Throssell, J. A. Montgomery, Jr., J. E. Peralta, 
 F. Ogliaro, M. J. Bearpark, J. J. Heyd, E. N. Brothers, K. N. Kudin, 
 V. N. Staroverov, T. A. Keith, R. Kobayashi, J. Normand, 
 K. Raghavachari, A. P. Rendell, J. C. Burant, S. S. Iyengar, 
 J. Tomasi, M. Cossi, J. M. Millam, M. Klene, C. Adamo, R. Cammi, 
 J. W. Ochterski, R. L. Martin, K. Morokuma, O. Farkas, 
 J. B. Foresman, and D. J. Fox, Gaussian, Inc., Wallingford CT, 2016.
 
 ******************************************
 Gaussian 16:  ES64L-G16RevA.03 25-Dec-2016
                16-Jul-2026 
 ******************************************
 %chk=opt_freq.chk
 %nproc=2
 Will use up to    2 processors via shared memory.
 %mem=2GB
 ----------------------
 #sp b3lyp/6-311+G(3df)
 ----------------------
 1/38=1,172=1/1;
 2/12=2,17=6,18=5,40=1/2;
 3/5=4,6=6,7=16,11=2,25=1,30=1,74=-5/1,2,3;
 4//1;
 5/5=2,38=5/2;
 6/7=2,8=2,9=2,10=2,28=1/1;
 99/5=1,9=1/99;
 --------------------
 single point of HOSO
 --------------------
 Symbolic Z-matrix:
 Charge =  0 Multiplicity = 2
 S                    -0.14317  -0.47768   0.01442 
 O                     1.32848   0.2801   -0.03146 
 O                    -1.19626   0.55127  -0.01789 
 H                     1.265     0.79986   0.12007 
 
                          Input orientation:                          
 ---------------------------------------------------------------------
 Center     Atomic      Atomic             Coordinates (Angstroms)
 Number     Number       Type             X           Y           Z
 ---------------------------------------------------------------------
      1         16           0       -0.143170   -0.477675    0.014424
      2          8           0        1.328478    0.280099   -0.031462
      3          8           0       -1.196263    0.551268   -0.017893
      4          1           0        1.264997    0.799861    0.120065
 ---------------------------------------------------------------------
                    Distance matrix (angstroms):
                    1          2          3          4
     1  S    0.000000
     2  O    1.655921   0.000000
     3  O    1.472675   2.539298   0.000000
     4  H    1.904256   0.545108   2.477626   0.000000
 Stoichiometry    HO2S(2)
 Framework group  C1[X(HO2S)]
 Deg. of freedom     6
 Full point group                 C1      NOp   1
 Largest Abelian subgroup         C1      NOp   1
 Largest concise Abelian subgroup C1      NOp   1
                         Standard orientation:                         
 ---------------------------------------------------------------------
 Center     Atomic      Atomic             Coordinates (Angstroms)
 Number     Number       Type             X           Y           Z
 ---------------------------------------------------------------------
      1         16           0       -0.139653   -0.473441    0.004921
      2          8           0        1.324764    0.299132   -0.021366
      3          8           0       -1.202469    0.545907   -0.006184
      4          1           0        1.256088    0.814737    0.141662
 ---------------------------------------------------------------------
 Rotational constants (GHZ):          36.0353018           9.4564044           7.4966893
 Standard basis: 6-311+G(3df) (5D, 7F)
 There are   146 symmetry adapted cartesian basis functions of A   symmetry.
 There are   128 symmetry adapted basis functions of A   symmetry.
   128 basis functions,   193 primitive gaussians,   146 cartesian basis functions
    17 alpha electrons       16 beta electrons
       nuclear repulsion energy       114.1572509869 Hartrees.
 NAtoms=    4 NActive=    4 NUniq=    4 SFac= 1.00D+00 NAtFMM=   60 NAOKFM=F Big=F
 Integral buffers will be    131072 words long.
 Raffenetti 2 integral format.
 Two-electron integral symmetry is turned on.
 One-electron integrals computed using PRISM.
 NBasis=   128 RedAO= T EigKep=  6.32D-04  NBF=   128
 NBsUse=   128 1.00D-06 EigRej= -1.00D+00 NBFU=   128
 ExpMin= 4.05D-02 ExpMax= 9.34D+04 ExpMxC= 3.17D+03 IAcc=3 IRadAn=         5 AccDes= 0.00D+00
 Harris functional with IExCor=  402 and IRadAn=       5 diagonalized for initial guess.
 HarFok:  IExCor=  402 AccDes= 0.00D+00 IRadAn=         5 IDoV= 1 UseB2=F ITyADJ=14
 ICtDFT=  3500011 ScaDFX=  1.000000  1.000000  1.000000  1.000000
 FoFCou: FMM=F IPFlag=           0 FMFlag=      100000 FMFlg1=           0
         NFxFlg=           0 DoJE=T BraDBF=F KetDBF=T FulRan=T
         wScrn=  0.000000 ICntrl=       500 IOpCl=  0 I1Cent=   200000004 NGrid=           0
         NMat0=    1 NMatS0=      1 NMatT0=    0 NMatD0=    1 NMtDS0=    0 NMtDT0=    0
 Petite list used in FoFCou.
 Initial guess <Sx>= 0.0000 <Sy>= 0.0000 <Sz>= 0.5000 <S**2>= 0.7500 S= 0.5000
 Keep R1 and R2 ints in memory in canonical form, NReq=70152845.
 Requested convergence on RMS density matrix=1.00D-08 within 128 cycles.
 Requested convergence on MAX density matrix=1.00D-06.
 Requested convergence on             energy=1.00D-06.
 No special actions if energy rises.
 SCF Done:  E(UB3LYP) =  -548.752100430     A.U. after   14 cycles
            NFock= 14  Conv=0.37D-08     -V/T= 1.9976
 <Sx>= 0.0000 <Sy>= 0.0000 <Sz>= 0.5000 <S**2>= 0.7553 S= 0.5027
 <L.S>= 0.000000000000E+00
 Annihilation of the first spin contaminant:
 S**2 before annihilation     0.7553,   after     0.7500

 **********************************************************************

            Population analysis using the SCF density.

 **********************************************************************

 Orbital symmetries:
 Alpha Orbitals:
       Occupied  (A) (A) (A) (A) (A) (A) (A) (A) (A) (A) (A) (A)
                 (A) (A) (A) (A) (A)
       Virtual   (A) (A) (A) (A) (A) (A) (A) (A) (A) (A) (A) (A)
                 (A) (A) (A) (A) (A) (A) (A) (A) (A) (A) (A) (A)
                 (A) (A) (A) (A) (A) (A) (A) (A) (A) (A) (A) (A)
                 (A) (A) (A) (A) (A) (A) (A) (A) (A) (A) (A) (A)
                 (A) (A) (A) (A) (A) (A) (A) (A) (A) (A) (A) (A)
                 (A) (A) (A) (A) (A) (A) (A) (A) (A) (A) (A) (A)
                 (A) (A) (A) (A) (A) (A) (A) (A) (A) (A) (A) (A)
                 (A) (A) (A) (A) (A) (A) (A) (A) (A) (A) (A) (A)
                 (A) (A) (A) (A) (A) (A) (A) (A) (A) (A) (A) (A)
                 (A) (A) (A)
 Beta  Orbitals:
       Occupied  (A) (A) (A) (A) (A) (A) (A) (A) (A) (A) (A) (A)
                 (A) (A) (A) (A)
       Virtual   (A) (A) (A) (A) (A) (A) (A) (A) (A) (A) (A) (A)
                 (A) (A) (A) (A) (A) (A) (A) (A) (A) (A) (A) (A)
                 (A) (A) (A) (A) (A) (A) (A) (A) (A) (A) (A) (A)
                 (A) (A) (A) (A) (A) (A) (A) (A) (A) (A) (A) (A)
                 (A) (A) (A) (A) (A) (A) (A) (A) (A) (A) (A) (A)
                 (A) (A) (A) (A) (A) (A) (A) (A) (A) (A) (A) (A)
                 (A) (A) (A) (A) (A) (A) (A) (A) (A) (A) (A) (A)
                 (A) (A) (A) (A) (A) (A) (A) (A) (A) (A) (A) (A)
                 (A) (A) (A) (A) (A) (A) (A) (A) (A) (A) (A) (A)
                 (A) (A) (A) (A)
 The electronic state is 2-A.
 Alpha  occ. eigenvalues --  -88.99464 -19.17480 -19.15749  -8.06757  -6.03167
 Alpha  occ. eigenvalues --   -6.02890  -6.02563  -1.23990  -1.08670  -0.76811
 Alpha  occ. eigenvalues --   -0.57610  -0.49192  -0.48496  -0.43736  -0.40181
 Alpha  occ. eigenvalues --   -0.35551  -0.24660
 Alpha virt. eigenvalues --   -0.02594  -0.01214   0.01443   0.04401   0.05505
 Alpha virt. eigenvalues --    0.08115   0.12169   0.15872   0.16514   0.17640
 Alpha virt. eigenvalues --    0.18288   0.21636   0.24718   0.24922   0.26600
 Alpha virt. eigenvalues --    0.27887   0.28159   0.29101   0.30738   0.31849
 Alpha virt. eigenvalues --    0.34921   0.41281   0.57972   0.69998   0.71581
 Alpha virt. eigenvalues --    0.75963   0.78686   0.79456   0.85238   0.86337
 Alpha virt. eigenvalues --    0.87752   0.88406   0.89895   0.94706   0.96367
 Alpha virt. eigenvalues --    0.99588   1.00969   1.03051   1.05015   1.09913
 Alpha virt. eigenvalues --    1.12216   1.19131   1.22769   1.25796   1.30369
 Alpha virt. eigenvalues --    1.40628   1.56537   1.57921   1.64210   1.71998
 Alpha virt. eigenvalues --    1.84785   1.91845   1.95148   1.98620   2.02958
 Alpha virt. eigenvalues --    2.12391   2.22313   2.25424   2.82084   3.20434
 Alpha virt. eigenvalues --    3.29302   3.34554   3.36332   3.39215   3.43685
 Alpha virt. eigenvalues --    3.45387   3.56115   3.59039   4.41368   4.44266
 Alpha virt. eigenvalues --    4.49460   4.54358   4.77466   4.80429   4.81861
 Alpha virt. eigenvalues --    4.89874   4.91094   4.92122   4.92408   4.96616
 Alpha virt. eigenvalues --    4.98770   4.98826   5.02569   5.06911   5.12695
 Alpha virt. eigenvalues --    5.29070   5.31827   5.38751   5.47890   5.55383
 Alpha virt. eigenvalues --    5.72341   5.83285   6.41186   8.21382   8.63245
 Alpha virt. eigenvalues --   14.14795  14.20067  14.22149  14.24988  14.27064
 Alpha virt. eigenvalues --   14.30977  14.32726  14.41820  14.56454  14.64057
 Alpha virt. eigenvalues --   17.20713  17.45865  17.71672  49.94656  50.47736
 Alpha virt. eigenvalues --  189.56540
  Beta  occ. eigenvalues --  -88.99072 -19.16427 -19.15501  -8.06399  -6.02957
  Beta  occ. eigenvalues --   -6.02382  -6.01630  -1.23448  -1.06813  -0.75148
  Beta  occ. eigenvalues --   -0.56049  -0.48504  -0.45262  -0.41967  -0.36687
  Beta  occ. eigenvalues --   -0.34455
  Beta virt. eigenvalues --   -0.12713  -0.01650  -0.00665   0.01739   0.04636
  Beta virt. eigenvalues --    0.05804   0.08584   0.12313   0.16131   0.16933
  Beta virt. eigenvalues --    0.17859   0.19182   0.21755   0.24809   0.26047
  Beta virt. eigenvalues --    0.27165   0.28243   0.28434   0.30345   0.32136
  Beta virt. eigenvalues --    0.32348   0.35340   0.42027   0.58393   0.70577
  Beta virt. eigenvalues --    0.72054   0.76248   0.79561   0.79973   0.86106
  Beta virt. eigenvalues --    0.87245   0.89163   0.89525   0.90294   0.95563
  Beta virt. eigenvalues --    0.97175   1.00590   1.03132   1.03240   1.05579
  Beta virt. eigenvalues --    1.11034   1.12991   1.19587   1.23965   1.26422
  Beta virt. eigenvalues --    1.31029   1.40921   1.59721   1.59952   1.65788
  Beta virt. eigenvalues --    1.73598   1.85652   1.93480   1.95976   2.01050
  Beta virt. eigenvalues --    2.02940   2.12967   2.22875   2.26383   2.82462
  Beta virt. eigenvalues --    3.21167   3.30352   3.36952   3.37781   3.40667
  Beta virt. eigenvalues --    3.44661   3.47922   3.56655   3.60243   4.42097
  Beta virt. eigenvalues --    4.44394   4.50514   4.54911   4.78031   4.80872
  Beta virt. eigenvalues --    4.82252   4.90587   4.91797   4.92752   4.93121
  Beta virt. eigenvalues --    5.00744   5.01134   5.01172   5.03209   5.08152
  Beta virt. eigenvalues --    5.14199   5.29588   5.32432   5.39587   5.48654
  Beta virt. eigenvalues --    5.56611   5.74277   5.83820   6.41613   8.21604
  Beta virt. eigenvalues --    8.63718  14.15857  14.21880  14.26097  14.26747
  Beta virt. eigenvalues --   14.28976  14.33229  14.34976  14.42861  14.58232
  Beta virt. eigenvalues --   14.64375  17.22379  17.46153  17.71973  49.95703
  Beta virt. eigenvalues --   50.47974 189.56894
          Condensed to atoms (all electrons):
               1          2          3          4
     1  S   15.338253  -0.036281   0.126920   0.056963
     2  O   -0.036281   8.512757   0.010636   0.127823
     3  O    0.126920   0.010636   8.229477  -0.008210
     4  H    0.056963   0.127823  -0.008210   0.363812
          Atomic-Atomic Spin Densities.
               1          2          3          4
     1  S    0.907814  -0.091249  -0.187726   0.003318
     2  O   -0.091249   0.137756   0.016828  -0.010452
     3  O   -0.187726   0.016828   0.490052  -0.001357
     4  H    0.003318  -0.010452  -0.001357   0.005654
 Mulliken charges and spin densities:
               1          2
     1  S    0.514144   0.632158
     2  O   -0.614934   0.052883
     3  O   -0.358823   0.317797
     4  H    0.459612  -0.002837
 Sum of Mulliken charges =  -0.00000   1.00000
 Mulliken charges and spin densities with hydrogens summed into heavy atoms:
               1          2
     1  S    0.514144   0.632158
     2  O   -0.155322   0.050046
     3  O   -0.358823   0.317797
 Electronic spatial extent (au):  <R**2>=            177.9785
 Charge=             -0.0000 electrons
 Dipole moment (field-independent basis, Debye):
    X=              0.8239    Y=             -0.5660    Z=              0.3269  Tot=              1.0517
 Quadrupole moment (field-independent basis, Debye-Ang):
   XX=            -26.7004   YY=            -21.9011   ZZ=            -23.2895
   XY=              2.5450   XZ=              0.5078   YZ=              0.4603
 Traceless Quadrupole moment (field-independent basis, Debye-Ang):
   XX=             -2.7367   YY=              2.0625   ZZ=              0.6742
   XY=              2.5450   XZ=              0.5078   YZ=              0.4603
 Octapole moment (field-independent basis, Debye-Ang**2):
  XXX=              1.8802  YYY=              3.4474  ZZZ=              0.1134  XYY=              3.2805
  XXY=              0.3105  XXZ=              0.6367  XZZ=              0.4973  YZZ=              1.3132
  YYZ=              0.4244  XYZ=              0.5694
 Hexadecapole moment (field-independent basis, Debye-Ang**3):
 XXXX=           -142.0022 YYYY=            -52.1274 ZZZZ=            -24.6030 XXXY=              5.4980
 XXXZ=              1.1393 YYYX=              4.2601 YYYZ=              0.5816 ZZZX=              0.4346
 ZZZY=              0.4631 XXYY=            -28.0333 XXZZ=            -26.7864 YYZZ=            -13.4865
 XXYZ=              0.8790 YYXZ=              0.5663 ZZXY=              0.5699
 N-N= 1.141572509869D+02 E-N=-1.532111704861D+03  KE= 5.500875501737D+02
                          Isotropic Fermi Contact Couplings
        Atom                 a.u.       MegaHertz       Gauss      10(-4) cm-1
     1  S(33)              0.05341      18.34470       6.54585       6.11913
     2  O(17)              0.00862      -5.22825      -1.86557      -1.74396
     3  O(17)              0.03645     -22.09618      -7.88447      -7.37049
     4  H(1)              -0.00021      -0.93132      -0.33232      -0.31066
 --------------------------------------------------------
       Center         ----  Spin Dipole Couplings  ----
                      3XX-RR        3YY-RR        3ZZ-RR
 --------------------------------------------------------
     1   Atom       -1.483057     -1.614244      3.097301
     2   Atom       -0.221452     -0.199712      0.421164
     3   Atom       -0.821656     -0.832411      1.654066
     4   Atom       -0.036202      0.033482      0.002720
 --------------------------------------------------------
                        XY            XZ            YZ
 --------------------------------------------------------
     1   Atom       -0.001732     -0.058802      0.059341
     2   Atom        0.006558      0.004522     -0.086660
     3   Atom        0.000777      0.087696      0.013447
     4   Atom       -0.001303      0.002407     -0.004064
 --------------------------------------------------------


 ---------------------------------------------------------------------------------
              Anisotropic Spin Dipole Couplings in Principal Axis System
 ---------------------------------------------------------------------------------

       Atom             a.u.   MegaHertz   Gauss  10(-4) cm-1        Axes

              Baa    -1.6150   -66.213   -23.627   -22.086  0.0076  0.9999 -0.0125
     1 S(33)  Bbb    -1.4838   -60.835   -21.707   -20.292  0.9999 -0.0074  0.0129
              Bcc     3.0988   127.048    45.334    42.379 -0.0128  0.0126  0.9998
 
              Baa    -0.2252    16.294     5.814     5.435  0.8863 -0.4582 -0.0676
     2 O(17)  Bbb    -0.2079    15.041     5.367     5.017  0.4631  0.8784  0.1177
              Bcc     0.4331   -31.335   -11.181   -10.452  0.0055 -0.1356  0.9907
 
              Baa    -0.8325    60.239    21.495    20.093 -0.0391  0.9992 -0.0040
     3 O(17)  Bbb    -0.8247    59.678    21.295    19.906  0.9986  0.0389 -0.0355
              Bcc     1.6572  -119.917   -42.789   -40.000  0.0354  0.0054  0.9994
 
              Baa    -0.0364   -19.403    -6.924    -6.472  0.9981  0.0151 -0.0599
     4 H(1)   Bbb     0.0023     1.238     0.442     0.413  0.0574  0.1315  0.9897
              Bcc     0.0340    18.166     6.482     6.059 -0.0229  0.9912 -0.1303
 

 ---------------------------------------------------------------------------------

 1\1\GINC-QCEXNOD57\SP\UB3LYP\6-311+G(3df)\H1O2S1(2)\ROOT\16-Jul-2026\0
 \\#sp b3lyp/6-311+G(3df)\\single point of HOSO\\0,2\S,0,-0.14317,-0.47
 7675,0.014424\O,0,1.328478,0.280099,-0.031462\O,0,-1.196263,0.551268,-
 0.017893\H,0,1.264997,0.799861,0.120065\\Version=ES64L-G16RevA.03\Stat
 e=2-A\HF=-548.7521004\S2=0.75534\S2-1=0.\S2A=0.750019\RMSD=3.744e-09\D
 ipole=0.3222424,-0.2228183,0.1330662\Quadrupole=-1.9970267,1.5116524,0
 .4853743,1.9344789,0.3419284,0.3124996\PG=C01 [X(H1O2S1)]\\@


 I do not feel obliged to believe that the same God who
 has endowed us with sense, reason, and intellect has
 intended us to forgo their use.
                   --Galileo Galilei
 Job cpu time:       0 days  0 hours  0 minutes 15.2 seconds.
 Elapsed time:       0 days  0 hours  0 minutes  7.9 seconds.
 File lengths (MBytes):  RWF=     16 Int=      0 D2E=      0 Chk=      2 Scr=      1
 Normal termination of Gaussian 16 at Thu Jul 16 14:38:41 2026.
