 Entering Gaussian System, Link 0=g16
 Initial command:
 /soft/g16.a03/g16/l1.exe "/scr/macias/296017.qcexmaster.qcexval.uv.es_vib3_-0.30/Gau-15253.inp" -scrdir="/scr/macias/296017.qcexmaster.qcexval.uv.es_vib3_-0.30/"
 Entering Link 1 = /soft/g16.a03/g16/l1.exe PID=     15259.
  
 Copyright (c) 1988,1990,1992,1993,1995,1998,2003,2009,2016,
            Gaussian, Inc.  All Rights Reserved.
  
 This is part of the Gaussian(R) 16 program.  It is based on
 the Gaussian(R) 09 system (copyright 2009, Gaussian, Inc.),
 the Gaussian(R) 03 system (copyright 2003, Gaussian, Inc.),
 the Gaussian(R) 98 system (copyright 1998, Gaussian, Inc.),
 the Gaussian(R) 94 system (copyright 1995, Gaussian, Inc.),
 the Gaussian 92(TM) system (copyright 1992, Gaussian, Inc.),
 the Gaussian 90(TM) system (copyright 1990, Gaussian, Inc.),
 the Gaussian 88(TM) system (copyright 1988, Gaussian, Inc.),
 the Gaussian 86(TM) system (copyright 1986, Carnegie Mellon
 University), and the Gaussian 82(TM) system (copyright 1983,
 Carnegie Mellon University). Gaussian is a federally registered
 trademark of Gaussian, Inc.
  
 This software contains proprietary and confidential information,
 including trade secrets, belonging to Gaussian, Inc.
  
 This software is provided under written license and may be
 used, copied, transmitted, or stored only in accord with that
 written license.
  
 The following legend is applicable only to US Government
 contracts under FAR:
  
                    RESTRICTED RIGHTS LEGEND
  
 Use, reproduction and disclosure by the US Government is
 subject to restrictions as set forth in subparagraphs (a)
 and (c) of the Commercial Computer Software - Restricted
 Rights clause in FAR 52.227-19.
  
 Gaussian, Inc.
 340 Quinnipiac St., Bldg. 40, Wallingford CT 06492
  
  
 ---------------------------------------------------------------
 Warning -- This program may not be used in any manner that
 competes with the business of Gaussian, Inc. or will provide
 assistance to any competitor of Gaussian, Inc.  The licensee
 of this program is prohibited from giving any competitor of
 Gaussian, Inc. access to this program.  By using this program,
 the user acknowledges that Gaussian, Inc. is engaged in the
 business of creating and licensing software in the field of
 computational chemistry and represents and warrants to the
 licensee that it is not a competitor of Gaussian, Inc. and that
 it will not use this program in any manner prohibited above.
 ---------------------------------------------------------------
  

 Cite this work as:
 Gaussian 16, Revision A.03,
 M. J. Frisch, G. W. Trucks, H. B. Schlegel, G. E. Scuseria, 
 M. A. Robb, J. R. Cheeseman, G. Scalmani, V. Barone, 
 G. A. Petersson, H. Nakatsuji, X. Li, M. Caricato, A. V. Marenich, 
 J. Bloino, B. G. Janesko, R. Gomperts, B. Mennucci, H. P. Hratchian, 
 J. V. Ortiz, A. F. Izmaylov, J. L. Sonnenberg, D. Williams-Young, 
 F. Ding, F. Lipparini, F. Egidi, J. Goings, B. Peng, A. Petrone, 
 T. Henderson, D. Ranasinghe, V. G. Zakrzewski, J. Gao, N. Rega, 
 G. Zheng, W. Liang, M. Hada, M. Ehara, K. Toyota, R. Fukuda, 
 J. Hasegawa, M. Ishida, T. Nakajima, Y. Honda, O. Kitao, H. Nakai, 
 T. Vreven, K. Throssell, J. A. Montgomery, Jr., J. E. Peralta, 
 F. Ogliaro, M. J. Bearpark, J. J. Heyd, E. N. Brothers, K. N. Kudin, 
 V. N. Staroverov, T. A. Keith, R. Kobayashi, J. Normand, 
 K. Raghavachari, A. P. Rendell, J. C. Burant, S. S. Iyengar, 
 J. Tomasi, M. Cossi, J. M. Millam, M. Klene, C. Adamo, R. Cammi, 
 J. W. Ochterski, R. L. Martin, K. Morokuma, O. Farkas, 
 J. B. Foresman, and D. J. Fox, Gaussian, Inc., Wallingford CT, 2016.
 
 ******************************************
 Gaussian 16:  ES64L-G16RevA.03 25-Dec-2016
                16-Jul-2026 
 ******************************************
 %chk=opt_freq.chk
 %nproc=2
 Will use up to    2 processors via shared memory.
 %mem=2GB
 ----------------------
 #sp b3lyp/6-311+G(3df)
 ----------------------
 1/38=1,172=1/1;
 2/12=2,17=6,18=5,40=1/2;
 3/5=4,6=6,7=16,11=2,25=1,30=1,74=-5/1,2,3;
 4//1;
 5/5=2,38=5/2;
 6/7=2,8=2,9=2,10=2,28=1/1;
 99/5=1,9=1/99;
 --------------------
 single point of HOSO
 --------------------
 Symbolic Z-matrix:
 Charge =  0 Multiplicity = 2
 S                    -0.24217  -0.55268   0.02042 
 O                     1.54148   0.3701   -0.05446 
 O                    -1.20226   0.58127  -0.02089 
 H                     1.149     1.24386   0.30007 
 
                          Input orientation:                          
 ---------------------------------------------------------------------
 Center     Atomic      Atomic             Coordinates (Angstroms)
 Number     Number       Type             X           Y           Z
 ---------------------------------------------------------------------
      1         16           0       -0.242170   -0.552675    0.020424
      2          8           0        1.541478    0.370099   -0.054462
      3          8           0       -1.202263    0.581268   -0.020893
      4          1           0        1.148997    1.243861    0.300065
 ---------------------------------------------------------------------
                    Distance matrix (angstroms):
                    1          2          3          4
     1  S    0.000000
     2  O    2.009607   0.000000
     3  O    1.486376   2.752060   0.000000
     4  H    2.289342   1.021367   2.463832   0.000000
 Stoichiometry    HO2S(2)
 Framework group  C1[X(HO2S)]
 Deg. of freedom     6
 Full point group                 C1      NOp   1
 Largest Abelian subgroup         C1      NOp   1
 Largest concise Abelian subgroup C1      NOp   1
                         Standard orientation:                         
 ---------------------------------------------------------------------
 Center     Atomic      Atomic             Coordinates (Angstroms)
 Number     Number       Type             X           Y           Z
 ---------------------------------------------------------------------
      1         16           0       -0.301563   -0.523001    0.015495
      2          8           0        1.573579    0.197271   -0.044268
      3          8           0       -1.130178    0.710291   -0.025763
      4          1           0        1.277802    1.107514    0.312334
 ---------------------------------------------------------------------
 Rotational constants (GHZ):          26.9461862           7.8052575           6.0721137
 Standard basis: 6-311+G(3df) (5D, 7F)
 There are   146 symmetry adapted cartesian basis functions of A   symmetry.
 There are   128 symmetry adapted basis functions of A   symmetry.
   128 basis functions,   193 primitive gaussians,   146 cartesian basis functions
    17 alpha electrons       16 beta electrons
       nuclear repulsion energy       101.1434360295 Hartrees.
 NAtoms=    4 NActive=    4 NUniq=    4 SFac= 1.00D+00 NAtFMM=   60 NAOKFM=F Big=F
 Integral buffers will be    131072 words long.
 Raffenetti 2 integral format.
 Two-electron integral symmetry is turned on.
 One-electron integrals computed using PRISM.
 NBasis=   128 RedAO= T EigKep=  1.13D-03  NBF=   128
 NBsUse=   128 1.00D-06 EigRej= -1.00D+00 NBFU=   128
 ExpMin= 4.05D-02 ExpMax= 9.34D+04 ExpMxC= 3.17D+03 IAcc=3 IRadAn=         5 AccDes= 0.00D+00
 Harris functional with IExCor=  402 and IRadAn=       5 diagonalized for initial guess.
 HarFok:  IExCor=  402 AccDes= 0.00D+00 IRadAn=         5 IDoV= 1 UseB2=F ITyADJ=14
 ICtDFT=  3500011 ScaDFX=  1.000000  1.000000  1.000000  1.000000
 FoFCou: FMM=F IPFlag=           0 FMFlag=      100000 FMFlg1=           0
         NFxFlg=           0 DoJE=T BraDBF=F KetDBF=T FulRan=T
         wScrn=  0.000000 ICntrl=       500 IOpCl=  0 I1Cent=   200000004 NGrid=           0
         NMat0=    1 NMatS0=      1 NMatT0=    0 NMatD0=    1 NMtDS0=    0 NMtDT0=    0
 Petite list used in FoFCou.
 Initial guess <Sx>= 0.0000 <Sy>= 0.0000 <Sz>= 0.5000 <S**2>= 0.7500 S= 0.5000
 Keep R1 and R2 ints in memory in canonical form, NReq=70152261.
 Requested convergence on RMS density matrix=1.00D-08 within 128 cycles.
 Requested convergence on MAX density matrix=1.00D-06.
 Requested convergence on             energy=1.00D-06.
 No special actions if energy rises.
 EnCoef did     2 forward-backward iterations
 EnCoef did     2 forward-backward iterations
 SCF Done:  E(UB3LYP) =  -549.260096935     A.U. after   18 cycles
            NFock= 18  Conv=0.96D-08     -V/T= 2.0025
 <Sx>= 0.0000 <Sy>= 0.0000 <Sz>= 0.5000 <S**2>= 0.7562 S= 0.5031
 <L.S>= 0.000000000000E+00
 Annihilation of the first spin contaminant:
 S**2 before annihilation     0.7562,   after     0.7500

 **********************************************************************

            Population analysis using the SCF density.

 **********************************************************************

 Orbital symmetries:
 Alpha Orbitals:
       Occupied  (A) (A) (A) (A) (A) (A) (A) (A) (A) (A) (A) (A)
                 (A) (A) (A) (A) (A)
       Virtual   (A) (A) (A) (A) (A) (A) (A) (A) (A) (A) (A) (A)
                 (A) (A) (A) (A) (A) (A) (A) (A) (A) (A) (A) (A)
                 (A) (A) (A) (A) (A) (A) (A) (A) (A) (A) (A) (A)
                 (A) (A) (A) (A) (A) (A) (A) (A) (A) (A) (A) (A)
                 (A) (A) (A) (A) (A) (A) (A) (A) (A) (A) (A) (A)
                 (A) (A) (A) (A) (A) (A) (A) (A) (A) (A) (A) (A)
                 (A) (A) (A) (A) (A) (A) (A) (A) (A) (A) (A) (A)
                 (A) (A) (A) (A) (A) (A) (A) (A) (A) (A) (A) (A)
                 (A) (A) (A) (A) (A) (A) (A) (A) (A) (A) (A) (A)
                 (A) (A) (A)
 Beta  Orbitals:
       Occupied  (A) (A) (A) (A) (A) (A) (A) (A) (A) (A) (A) (A)
                 (A) (A) (A) (A)
       Virtual   (A) (A) (A) (A) (A) (A) (A) (A) (A) (A) (A) (A)
                 (A) (A) (A) (A) (A) (A) (A) (A) (A) (A) (A) (A)
                 (A) (A) (A) (A) (A) (A) (A) (A) (A) (A) (A) (A)
                 (A) (A) (A) (A) (A) (A) (A) (A) (A) (A) (A) (A)
                 (A) (A) (A) (A) (A) (A) (A) (A) (A) (A) (A) (A)
                 (A) (A) (A) (A) (A) (A) (A) (A) (A) (A) (A) (A)
                 (A) (A) (A) (A) (A) (A) (A) (A) (A) (A) (A) (A)
                 (A) (A) (A) (A) (A) (A) (A) (A) (A) (A) (A) (A)
                 (A) (A) (A) (A) (A) (A) (A) (A) (A) (A) (A) (A)
                 (A) (A) (A) (A)
 The electronic state is 2-A.
 Alpha  occ. eigenvalues --  -89.00594 -19.20272 -19.16859  -8.07870  -6.04189
 Alpha  occ. eigenvalues --   -6.04022  -6.03772  -1.10606  -0.98223  -0.70199
 Alpha  occ. eigenvalues --   -0.49357  -0.47898  -0.46942  -0.44465  -0.34397
 Alpha  occ. eigenvalues --   -0.33824  -0.27088
 Alpha virt. eigenvalues --   -0.11095  -0.02298   0.00312   0.03000   0.04526
 Alpha virt. eigenvalues --    0.07370   0.10713   0.15282   0.16058   0.16285
 Alpha virt. eigenvalues --    0.17483   0.19705   0.22707   0.23426   0.24105
 Alpha virt. eigenvalues --    0.25266   0.27075   0.29843   0.30526   0.31239
 Alpha virt. eigenvalues --    0.31922   0.35511   0.48113   0.54378   0.70026
 Alpha virt. eigenvalues --    0.75613   0.77571   0.78247   0.83050   0.85253
 Alpha virt. eigenvalues --    0.86509   0.90287   0.92342   0.92729   0.95172
 Alpha virt. eigenvalues --    0.97111   0.98917   1.01854   1.02368   1.03524
 Alpha virt. eigenvalues --    1.06921   1.14867   1.19007   1.22243   1.25991
 Alpha virt. eigenvalues --    1.36966   1.49974   1.55731   1.58874   1.61787
 Alpha virt. eigenvalues --    1.66187   1.78551   1.78932   1.97096   1.99117
 Alpha virt. eigenvalues --    2.09295   2.21682   2.29140   2.39945   3.29206
 Alpha virt. eigenvalues --    3.31015   3.33906   3.41417   3.41977   3.44398
 Alpha virt. eigenvalues --    3.47682   3.53263   3.55380   3.59416   4.47225
 Alpha virt. eigenvalues --    4.47703   4.48144   4.50729   4.77057   4.91861
 Alpha virt. eigenvalues --    4.92718   4.93727   4.96273   4.96388   4.96996
 Alpha virt. eigenvalues --    4.98009   4.98609   5.00155   5.04661   5.07395
 Alpha virt. eigenvalues --    5.09081   5.11507   5.14237   5.43656   5.46922
 Alpha virt. eigenvalues --    5.50863   5.67394   5.71544   5.95314   8.40399
 Alpha virt. eigenvalues --   14.18292  14.18905  14.22500  14.27454  14.28292
 Alpha virt. eigenvalues --   14.28805  14.30408  14.34772  14.38976  14.53074
 Alpha virt. eigenvalues --   17.18019  17.42674  17.62872  49.83780  49.91306
 Alpha virt. eigenvalues --  189.35289
  Beta  occ. eigenvalues --  -89.00194 -19.19132 -19.16758  -8.07508  -6.03955
  Beta  occ. eigenvalues --   -6.03578  -6.02757  -1.08600  -0.97913  -0.67094
  Beta  occ. eigenvalues --   -0.48513  -0.46315  -0.44031  -0.41964  -0.33440
  Beta  occ. eigenvalues --   -0.32295
  Beta virt. eigenvalues --   -0.15157  -0.10213  -0.01574   0.00536   0.03055
  Beta virt. eigenvalues --    0.04751   0.07724   0.10900   0.15683   0.16490
  Beta virt. eigenvalues --    0.16668   0.18031   0.20065   0.22988   0.23964
  Beta virt. eigenvalues --    0.24932   0.25801   0.28450   0.30228   0.31170
  Beta virt. eigenvalues --    0.32236   0.32477   0.36355   0.48171   0.54995
  Beta virt. eigenvalues --    0.70549   0.76116   0.78049   0.79061   0.83851
  Beta virt. eigenvalues --    0.85900   0.88516   0.90901   0.93220   0.94256
  Beta virt. eigenvalues --    0.95631   0.97421   1.01255   1.02044   1.02964
  Beta virt. eigenvalues --    1.04240   1.07691   1.15158   1.19865   1.23371
  Beta virt. eigenvalues --    1.26946   1.37222   1.50273   1.59103   1.61405
  Beta virt. eigenvalues --    1.63171   1.67973   1.79570   1.80994   1.99065
  Beta virt. eigenvalues --    1.99516   2.09835   2.22707   2.29508   2.40446
  Beta virt. eigenvalues --    3.31003   3.33369   3.35775   3.42027   3.44591
  Beta virt. eigenvalues --    3.44936   3.48074   3.53745   3.56811   3.59422
  Beta virt. eigenvalues --    4.47798   4.48355   4.49073   4.51467   4.77695
  Beta virt. eigenvalues --    4.92771   4.93841   4.96920   4.97229   4.97891
  Beta virt. eigenvalues --    4.98918   4.99031   4.99138   5.00612   5.05380
  Beta virt. eigenvalues --    5.08809   5.09765   5.12262   5.15084   5.44038
  Beta virt. eigenvalues --    5.47263   5.51902   5.69477   5.71958   5.96099
  Beta virt. eigenvalues --    8.40950  14.21563  14.22823  14.24111  14.28973
  Beta virt. eigenvalues --   14.29159  14.30875  14.31856  14.35404  14.38922
  Beta virt. eigenvalues --   14.55012  17.19687  17.43022  17.63169  49.83916
  Beta virt. eigenvalues --   49.92398 189.35650
          Condensed to atoms (all electrons):
               1          2          3          4
     1  S   15.181894   0.094110   0.147632   0.004536
     2  O    0.094110   8.441786  -0.013325   0.189954
     3  O    0.147632  -0.013325   8.171089   0.002641
     4  H    0.004536   0.189954   0.002641   0.354136
          Atomic-Atomic Spin Densities.
               1          2          3          4
     1  S    0.847024  -0.032334  -0.175658  -0.000732
     2  O   -0.032334   0.038843   0.008897  -0.000600
     3  O   -0.175658   0.008897   0.513414  -0.000181
     4  H   -0.000732  -0.000600  -0.000181   0.001939
 Mulliken charges and spin densities:
               1          2
     1  S    0.571828   0.638299
     2  O   -0.712525   0.014805
     3  O   -0.308036   0.346471
     4  H    0.448733   0.000425
 Sum of Mulliken charges =  -0.00000   1.00000
 Mulliken charges and spin densities with hydrogens summed into heavy atoms:
               1          2
     1  S    0.571828   0.638299
     2  O   -0.263792   0.015230
     3  O   -0.308036   0.346471
 Electronic spatial extent (au):  <R**2>=            209.1190
 Charge=             -0.0000 electrons
 Dipole moment (field-independent basis, Debye):
    X=             -0.8255    Y=             -0.7608    Z=              0.5665  Tot=              1.2575
 Quadrupole moment (field-independent basis, Debye-Ang):
   XX=            -28.3230   YY=            -21.4448   ZZ=            -24.0621
   XY=              3.0969   XZ=              0.6504   YZ=              0.9164
 Traceless Quadrupole moment (field-independent basis, Debye-Ang):
   XX=             -3.7130   YY=              3.1651   ZZ=              0.5479
   XY=              3.0969   XZ=              0.6504   YZ=              0.9164
 Octapole moment (field-independent basis, Debye-Ang**2):
  XXX=             -5.7690  YYY=              2.7350  ZZZ=              0.0170  XYY=              3.3995
  XXY=              0.3416  XXZ=              0.7231  XZZ=             -0.9675  YZZ=              0.9039
  YYZ=              0.9455  XYZ=              1.2319
 Hexadecapole moment (field-independent basis, Debye-Ang**3):
 XXXX=           -178.3117 YYYY=            -61.1342 ZZZZ=            -26.2260 XXXY=              4.7132
 XXXZ=              0.7046 YYYX=              3.5846 YYYZ=              1.3329 ZZZX=              0.2874
 ZZZY=              0.6208 XXYY=            -34.5214 XXZZ=            -33.0777 YYZZ=            -15.4210
 XXYZ=              1.7639 YYXZ=              1.1611 ZZXY=             -0.0298
 N-N= 1.011434360295D+02 E-N=-1.505915359358D+03  KE= 5.478993697233D+02
                          Isotropic Fermi Contact Couplings
        Atom                 a.u.       MegaHertz       Gauss      10(-4) cm-1
     1  S(33)              0.01326       4.55292       1.62460       1.51869
     2  O(17)              0.00869      -5.26958      -1.88032      -1.75774
     3  O(17)              0.03714     -22.51628      -8.03437      -7.51062
     4  H(1)               0.00013       0.57955       0.20680       0.19332
 --------------------------------------------------------
       Center         ----  Spin Dipole Couplings  ----
                      3XX-RR        3YY-RR        3ZZ-RR
 --------------------------------------------------------
     1   Atom       -1.456860     -1.596149      3.053009
     2   Atom       -0.251671     -0.092427      0.344098
     3   Atom       -0.830782     -0.882647      1.713429
     4   Atom        0.002320      0.005446     -0.007766
 --------------------------------------------------------
                        XY            XZ            YZ
 --------------------------------------------------------
     1   Atom        0.061326      0.002828      0.185649
     2   Atom       -0.057918      0.029684     -0.084611
     3   Atom        0.036452      0.059404      0.068207
     4   Atom        0.004617      0.001599      0.001630
 --------------------------------------------------------


 ---------------------------------------------------------------------------------
              Anisotropic Spin Dipole Couplings in Principal Axis System
 ---------------------------------------------------------------------------------

       Atom             a.u.   MegaHertz   Gauss  10(-4) cm-1        Axes

              Baa    -1.6257   -66.653   -23.783   -22.233 -0.3406  0.9395 -0.0371
     1 S(33)  Bbb    -1.4347   -58.822   -20.989   -19.621  0.9402  0.3403 -0.0147
              Bcc     3.0604   125.474    44.772    41.854  0.0012  0.0399  0.9992
 
              Baa    -0.2705    19.574     6.985     6.529  0.9515  0.3077 -0.0036
     2 O(17)  Bbb    -0.0920     6.658     2.376     2.221 -0.3007  0.9322  0.2013
              Bcc     0.3625   -26.232    -9.360    -8.750  0.0653 -0.1905  0.9795
 
              Baa    -0.9019    65.260    23.286    21.768 -0.4474  0.8942 -0.0132
     3 O(17)  Bbb    -0.8148    58.955    21.037    19.665  0.8940  0.4468 -0.0331
              Bcc     1.7166  -124.216   -44.323   -41.434  0.0237  0.0266  0.9994
 
              Baa    -0.0081    -4.314    -1.539    -1.439 -0.1169 -0.0793  0.9900
     4 H(1)   Bbb    -0.0010    -0.520    -0.186    -0.173  0.8052 -0.5911  0.0477
              Bcc     0.0091     4.834     1.725     1.612  0.5814  0.8027  0.1330
 

 ---------------------------------------------------------------------------------

 1\1\GINC-QCEXNOD57\SP\UB3LYP\6-311+G(3df)\H1O2S1(2)\ROOT\16-Jul-2026\0
 \\#sp b3lyp/6-311+G(3df)\\single point of HOSO\\0,2\S,0,-0.24217,-0.55
 2675,0.020424\O,0,1.541478,0.370099,-0.054462\O,0,-1.202263,0.581268,-
 0.020893\H,0,1.148997,1.243861,0.300065\\Version=ES64L-G16RevA.03\Stat
 e=2-A\HF=-549.2600969\S2=0.756193\S2-1=0.\S2A=0.75003\RMSD=9.614e-09\D
 ipole=-0.2883843,-0.3322717,0.22624\Quadrupole=-3.1990826,2.8038065,0.
 3952761,1.6907618,0.4179697,0.7085936\PG=C01 [X(H1O2S1)]\\@


 A MAN THINKING OR WORKING IS ALWAYS ALONE, 
 LET HIM BE WHERE HE WILL.

                                    -- THOREAU
 Job cpu time:       0 days  0 hours  0 minutes 20.5 seconds.
 Elapsed time:       0 days  0 hours  0 minutes 10.7 seconds.
 File lengths (MBytes):  RWF=     16 Int=      0 D2E=      0 Chk=      2 Scr=      1
 Normal termination of Gaussian 16 at Thu Jul 16 14:38:15 2026.
