 Entering Gaussian System, Link 0=g16
 Initial command:
 /soft/g16.a03/g16/l1.exe "/scr/macias/296004.qcexmaster.qcexval.uv.es_vib1_0.30/Gau-14652.inp" -scrdir="/scr/macias/296004.qcexmaster.qcexval.uv.es_vib1_0.30/"
 Entering Link 1 = /soft/g16.a03/g16/l1.exe PID=     14670.
  
 Copyright (c) 1988,1990,1992,1993,1995,1998,2003,2009,2016,
            Gaussian, Inc.  All Rights Reserved.
  
 This is part of the Gaussian(R) 16 program.  It is based on
 the Gaussian(R) 09 system (copyright 2009, Gaussian, Inc.),
 the Gaussian(R) 03 system (copyright 2003, Gaussian, Inc.),
 the Gaussian(R) 98 system (copyright 1998, Gaussian, Inc.),
 the Gaussian(R) 94 system (copyright 1995, Gaussian, Inc.),
 the Gaussian 92(TM) system (copyright 1992, Gaussian, Inc.),
 the Gaussian 90(TM) system (copyright 1990, Gaussian, Inc.),
 the Gaussian 88(TM) system (copyright 1988, Gaussian, Inc.),
 the Gaussian 86(TM) system (copyright 1986, Carnegie Mellon
 University), and the Gaussian 82(TM) system (copyright 1983,
 Carnegie Mellon University). Gaussian is a federally registered
 trademark of Gaussian, Inc.
  
 This software contains proprietary and confidential information,
 including trade secrets, belonging to Gaussian, Inc.
  
 This software is provided under written license and may be
 used, copied, transmitted, or stored only in accord with that
 written license.
  
 The following legend is applicable only to US Government
 contracts under FAR:
  
                    RESTRICTED RIGHTS LEGEND
  
 Use, reproduction and disclosure by the US Government is
 subject to restrictions as set forth in subparagraphs (a)
 and (c) of the Commercial Computer Software - Restricted
 Rights clause in FAR 52.227-19.
  
 Gaussian, Inc.
 340 Quinnipiac St., Bldg. 40, Wallingford CT 06492
  
  
 ---------------------------------------------------------------
 Warning -- This program may not be used in any manner that
 competes with the business of Gaussian, Inc. or will provide
 assistance to any competitor of Gaussian, Inc.  The licensee
 of this program is prohibited from giving any competitor of
 Gaussian, Inc. access to this program.  By using this program,
 the user acknowledges that Gaussian, Inc. is engaged in the
 business of creating and licensing software in the field of
 computational chemistry and represents and warrants to the
 licensee that it is not a competitor of Gaussian, Inc. and that
 it will not use this program in any manner prohibited above.
 ---------------------------------------------------------------
  

 Cite this work as:
 Gaussian 16, Revision A.03,
 M. J. Frisch, G. W. Trucks, H. B. Schlegel, G. E. Scuseria, 
 M. A. Robb, J. R. Cheeseman, G. Scalmani, V. Barone, 
 G. A. Petersson, H. Nakatsuji, X. Li, M. Caricato, A. V. Marenich, 
 J. Bloino, B. G. Janesko, R. Gomperts, B. Mennucci, H. P. Hratchian, 
 J. V. Ortiz, A. F. Izmaylov, J. L. Sonnenberg, D. Williams-Young, 
 F. Ding, F. Lipparini, F. Egidi, J. Goings, B. Peng, A. Petrone, 
 T. Henderson, D. Ranasinghe, V. G. Zakrzewski, J. Gao, N. Rega, 
 G. Zheng, W. Liang, M. Hada, M. Ehara, K. Toyota, R. Fukuda, 
 J. Hasegawa, M. Ishida, T. Nakajima, Y. Honda, O. Kitao, H. Nakai, 
 T. Vreven, K. Throssell, J. A. Montgomery, Jr., J. E. Peralta, 
 F. Ogliaro, M. J. Bearpark, J. J. Heyd, E. N. Brothers, K. N. Kudin, 
 V. N. Staroverov, T. A. Keith, R. Kobayashi, J. Normand, 
 K. Raghavachari, A. P. Rendell, J. C. Burant, S. S. Iyengar, 
 J. Tomasi, M. Cossi, J. M. Millam, M. Klene, C. Adamo, R. Cammi, 
 J. W. Ochterski, R. L. Martin, K. Morokuma, O. Farkas, 
 J. B. Foresman, and D. J. Fox, Gaussian, Inc., Wallingford CT, 2016.
 
 ******************************************
 Gaussian 16:  ES64L-G16RevA.03 25-Dec-2016
                16-Jul-2026 
 ******************************************
 %chk=opt_freq.chk
 %nproc=2
 Will use up to    2 processors via shared memory.
 %mem=2GB
 ----------------------
 #sp b3lyp/6-311+G(3df)
 ----------------------
 1/38=1,172=1/1;
 2/12=2,17=6,18=5,40=1/2;
 3/5=4,6=6,7=16,11=2,25=1,30=1,74=-5/1,2,3;
 4//1;
 5/5=2,38=5/2;
 6/7=2,8=2,9=2,10=2,28=1/1;
 99/5=1,9=1/99;
 --------------------
 single point of HOSO
 --------------------
 Symbolic Z-matrix:
 Charge =  0 Multiplicity = 2
 S                    -0.14317  -0.47168   0.02342 
 O                     1.32848   0.2561   -0.06346 
 O                    -1.20526   0.54527  -0.02989 
 H                     1.311     1.10586   0.50407 
 
                          Input orientation:                          
 ---------------------------------------------------------------------
 Center     Atomic      Atomic             Coordinates (Angstroms)
 Number     Number       Type             X           Y           Z
 ---------------------------------------------------------------------
      1         16           0       -0.143170   -0.471675    0.023424
      2          8           0        1.328478    0.256099   -0.063462
      3          8           0       -1.205263    0.545268   -0.029893
      4          1           0        1.310997    1.105861    0.504065
 ---------------------------------------------------------------------
                    Distance matrix (angstroms):
                    1          2          3          4
     1  S    0.000000
     2  O    1.644066   0.000000
     3  O    1.471413   2.550410   0.000000
     4  H    2.198690   1.022002   2.632668   0.000000
 Stoichiometry    HO2S(2)
 Framework group  C1[X(HO2S)]
 Deg. of freedom     6
 Full point group                 C1      NOp   1
 Largest Abelian subgroup         C1      NOp   1
 Largest concise Abelian subgroup C1      NOp   1
                         Standard orientation:                         
 ---------------------------------------------------------------------
 Center     Atomic      Atomic             Coordinates (Angstroms)
 Number     Number       Type             X           Y           Z
 ---------------------------------------------------------------------
      1         16           0       -0.143085   -0.470400    0.028243
      2          8           0        1.327653    0.256000   -0.082316
      3          8           0       -1.205801    0.545439   -0.033097
      4          1           0        1.314542    1.114895    0.471412
 ---------------------------------------------------------------------
 Rotational constants (GHZ):          35.0324758           9.3201610           7.4359527
 Standard basis: 6-311+G(3df) (5D, 7F)
 There are   146 symmetry adapted cartesian basis functions of A   symmetry.
 There are   128 symmetry adapted basis functions of A   symmetry.
   128 basis functions,   193 primitive gaussians,   146 cartesian basis functions
    17 alpha electrons       16 beta electrons
       nuclear repulsion energy       110.1135993863 Hartrees.
 NAtoms=    4 NActive=    4 NUniq=    4 SFac= 1.00D+00 NAtFMM=   60 NAOKFM=F Big=F
 Integral buffers will be    131072 words long.
 Raffenetti 2 integral format.
 Two-electron integral symmetry is turned on.
 One-electron integrals computed using PRISM.
 NBasis=   128 RedAO= T EigKep=  9.31D-04  NBF=   128
 NBsUse=   128 1.00D-06 EigRej= -1.00D+00 NBFU=   128
 ExpMin= 4.05D-02 ExpMax= 9.34D+04 ExpMxC= 3.17D+03 IAcc=3 IRadAn=         5 AccDes= 0.00D+00
 Harris functional with IExCor=  402 and IRadAn=       5 diagonalized for initial guess.
 HarFok:  IExCor=  402 AccDes= 0.00D+00 IRadAn=         5 IDoV= 1 UseB2=F ITyADJ=14
 ICtDFT=  3500011 ScaDFX=  1.000000  1.000000  1.000000  1.000000
 FoFCou: FMM=F IPFlag=           0 FMFlag=      100000 FMFlg1=           0
         NFxFlg=           0 DoJE=T BraDBF=F KetDBF=T FulRan=T
         wScrn=  0.000000 ICntrl=       500 IOpCl=  0 I1Cent=   200000004 NGrid=           0
         NMat0=    1 NMatS0=      1 NMatT0=    0 NMatD0=    1 NMtDS0=    0 NMtDT0=    0
 Petite list used in FoFCou.
 Initial guess <Sx>= 0.0000 <Sy>= 0.0000 <Sz>= 0.5000 <S**2>= 0.7500 S= 0.5000
 Keep R1 and R2 ints in memory in canonical form, NReq=70152731.
 Requested convergence on RMS density matrix=1.00D-08 within 128 cycles.
 Requested convergence on MAX density matrix=1.00D-06.
 Requested convergence on             energy=1.00D-06.
 No special actions if energy rises.
 SCF Done:  E(UB3LYP) =  -549.291632915     A.U. after   14 cycles
            NFock= 14  Conv=0.46D-08     -V/T= 2.0020
 <Sx>= 0.0000 <Sy>= 0.0000 <Sz>= 0.5000 <S**2>= 0.7553 S= 0.5027
 <L.S>= 0.000000000000E+00
 Annihilation of the first spin contaminant:
 S**2 before annihilation     0.7553,   after     0.7500

 **********************************************************************

            Population analysis using the SCF density.

 **********************************************************************

 Orbital symmetries:
 Alpha Orbitals:
       Occupied  (A) (A) (A) (A) (A) (A) (A) (A) (A) (A) (A) (A)
                 (A) (A) (A) (A) (A)
       Virtual   (A) (A) (A) (A) (A) (A) (A) (A) (A) (A) (A) (A)
                 (A) (A) (A) (A) (A) (A) (A) (A) (A) (A) (A) (A)
                 (A) (A) (A) (A) (A) (A) (A) (A) (A) (A) (A) (A)
                 (A) (A) (A) (A) (A) (A) (A) (A) (A) (A) (A) (A)
                 (A) (A) (A) (A) (A) (A) (A) (A) (A) (A) (A) (A)
                 (A) (A) (A) (A) (A) (A) (A) (A) (A) (A) (A) (A)
                 (A) (A) (A) (A) (A) (A) (A) (A) (A) (A) (A) (A)
                 (A) (A) (A) (A) (A) (A) (A) (A) (A) (A) (A) (A)
                 (A) (A) (A) (A) (A) (A) (A) (A) (A) (A) (A) (A)
                 (A) (A) (A)
 Beta  Orbitals:
       Occupied  (A) (A) (A) (A) (A) (A) (A) (A) (A) (A) (A) (A)
                 (A) (A) (A) (A)
       Virtual   (A) (A) (A) (A) (A) (A) (A) (A) (A) (A) (A) (A)
                 (A) (A) (A) (A) (A) (A) (A) (A) (A) (A) (A) (A)
                 (A) (A) (A) (A) (A) (A) (A) (A) (A) (A) (A) (A)
                 (A) (A) (A) (A) (A) (A) (A) (A) (A) (A) (A) (A)
                 (A) (A) (A) (A) (A) (A) (A) (A) (A) (A) (A) (A)
                 (A) (A) (A) (A) (A) (A) (A) (A) (A) (A) (A) (A)
                 (A) (A) (A) (A) (A) (A) (A) (A) (A) (A) (A) (A)
                 (A) (A) (A) (A) (A) (A) (A) (A) (A) (A) (A) (A)
                 (A) (A) (A) (A) (A) (A) (A) (A) (A) (A) (A) (A)
                 (A) (A) (A) (A)
 The electronic state is 2-A.
 Alpha  occ. eigenvalues --  -88.98281 -19.19746 -19.16455  -8.05578  -6.01959
 Alpha  occ. eigenvalues --   -6.01733  -6.01397  -1.11249  -1.04321  -0.69862
 Alpha  occ. eigenvalues --   -0.54231  -0.48298  -0.47006  -0.42478  -0.37833
 Alpha  occ. eigenvalues --   -0.34383  -0.23851
 Alpha virt. eigenvalues --   -0.03450   0.00081   0.01475   0.03568   0.05067
 Alpha virt. eigenvalues --    0.07823   0.10745   0.14162   0.16685   0.17486
 Alpha virt. eigenvalues --    0.18394   0.20689   0.22354   0.25040   0.25302
 Alpha virt. eigenvalues --    0.27989   0.28476   0.30307   0.31734   0.32464
 Alpha virt. eigenvalues --    0.33017   0.41241   0.45789   0.58815   0.70544
 Alpha virt. eigenvalues --    0.75164   0.78104   0.80290   0.84166   0.87562
 Alpha virt. eigenvalues --    0.88182   0.89738   0.91317   0.92630   0.97554
 Alpha virt. eigenvalues --    1.00346   1.01454   1.03510   1.05283   1.08207
 Alpha virt. eigenvalues --    1.12561   1.18401   1.23932   1.28981   1.29905
 Alpha virt. eigenvalues --    1.33471   1.57310   1.59240   1.64617   1.71992
 Alpha virt. eigenvalues --    1.82872   1.91934   1.97525   1.99764   2.03574
 Alpha virt. eigenvalues --    2.11988   2.22188   2.26328   2.33945   3.29642
 Alpha virt. eigenvalues --    3.33744   3.35591   3.38431   3.41729   3.45468
 Alpha virt. eigenvalues --    3.47512   3.51031   3.59148   3.60430   4.43006
 Alpha virt. eigenvalues --    4.46663   4.50649   4.58966   4.78881   4.90192
 Alpha virt. eigenvalues --    4.93269   4.93909   4.95498   4.96629   4.97364
 Alpha virt. eigenvalues --    4.99727   5.00987   5.06290   5.12088   5.14032
 Alpha virt. eigenvalues --    5.28416   5.33894   5.40927   5.44666   5.55036
 Alpha virt. eigenvalues --    5.57313   5.73983   5.86973   6.43770   8.62866
 Alpha virt. eigenvalues --   14.19567  14.22125  14.23086  14.25555  14.28217
 Alpha virt. eigenvalues --   14.30733  14.32718  14.34930  14.47792  14.57714
 Alpha virt. eigenvalues --   17.22072  17.45819  17.73621  49.87888  49.96162
 Alpha virt. eigenvalues --  189.58548
  Beta  occ. eigenvalues --  -88.97893 -19.19527 -19.15404  -8.05223  -6.01749
  Beta  occ. eigenvalues --   -6.01218  -6.00487  -1.10097  -1.03020  -0.67693
  Beta  occ. eigenvalues --   -0.53006  -0.47278  -0.44613  -0.39641  -0.35320
  Beta  occ. eigenvalues --   -0.33297
  Beta virt. eigenvalues --   -0.12013  -0.02911   0.00459   0.02113   0.04021
  Beta virt. eigenvalues --    0.05543   0.08058   0.11053   0.14454   0.16957
  Beta virt. eigenvalues --    0.17956   0.18652   0.21259   0.22713   0.25119
  Beta virt. eigenvalues --    0.26312   0.28509   0.28890   0.31308   0.32653
  Beta virt. eigenvalues --    0.33097   0.34255   0.41806   0.46119   0.59242
  Beta virt. eigenvalues --    0.71115   0.75421   0.79114   0.80789   0.84996
  Beta virt. eigenvalues --    0.88092   0.89426   0.91082   0.92275   0.93688
  Beta virt. eigenvalues --    0.98267   1.01053   1.03145   1.04556   1.05589
  Beta virt. eigenvalues --    1.08975   1.13721   1.18791   1.25305   1.29825
  Beta virt. eigenvalues --    1.30298   1.33776   1.60679   1.61060   1.66180
  Beta virt. eigenvalues --    1.73545   1.83827   1.93446   1.98339   2.02196
  Beta virt. eigenvalues --    2.03709   2.12500   2.22669   2.27253   2.34449
  Beta virt. eigenvalues --    3.30455   3.35391   3.38068   3.39327   3.42998
  Beta virt. eigenvalues --    3.47773   3.48204   3.51881   3.59454   3.61610
  Beta virt. eigenvalues --    4.43770   4.46833   4.51697   4.59503   4.79524
  Beta virt. eigenvalues --    4.90757   4.94043   4.94524   4.96043   4.97647
  Beta virt. eigenvalues --    5.01727   5.02001   5.02872   5.07003   5.13166
  Beta virt. eigenvalues --    5.15490   5.28954   5.34354   5.41618   5.45394
  Beta virt. eigenvalues --    5.55630   5.58329   5.75858   5.87534   6.44185
  Beta virt. eigenvalues --    8.63360  14.20584  14.24591  14.26400  14.27104
  Beta virt. eigenvalues --   14.30235  14.31768  14.35140  14.36486  14.48217
  Beta virt. eigenvalues --   14.59524  17.23719  17.46102  17.73925  49.88139
  Beta virt. eigenvalues --   49.97173 189.58899
          Condensed to atoms (all electrons):
               1          2          3          4
     1  S   15.353566  -0.004837   0.134290   0.000194
     2  O   -0.004837   8.404708   0.005709   0.193866
     3  O    0.134290   0.005709   8.240362  -0.000397
     4  H    0.000194   0.193866  -0.000397   0.343714
          Atomic-Atomic Spin Densities.
               1          2          3          4
     1  S    0.905587  -0.077739  -0.187358  -0.011371
     2  O   -0.077739   0.114492   0.013626  -0.007692
     3  O   -0.187358   0.013626   0.490147   0.002417
     4  H   -0.011371  -0.007692   0.002417   0.026009
 Mulliken charges and spin densities:
               1          2
     1  S    0.516787   0.629118
     2  O   -0.599446   0.042686
     3  O   -0.379964   0.318832
     4  H    0.462623   0.009363
 Sum of Mulliken charges =  -0.00000   1.00000
 Mulliken charges and spin densities with hydrogens summed into heavy atoms:
               1          2
     1  S    0.516787   0.629118
     2  O   -0.136823   0.052049
     3  O   -0.379964   0.318832
 Electronic spatial extent (au):  <R**2>=            181.2423
 Charge=              0.0000 electrons
 Dipole moment (field-independent basis, Debye):
    X=              1.3211    Y=             -0.0411    Z=              0.9512  Tot=              1.6285
 Quadrupole moment (field-independent basis, Debye-Ang):
   XX=            -26.6960   YY=            -21.8046   ZZ=            -23.4454
   XY=              3.3837   XZ=              1.3074   YZ=              1.3888
 Traceless Quadrupole moment (field-independent basis, Debye-Ang):
   XX=             -2.7140   YY=              2.1774   ZZ=              0.5366
   XY=              3.3837   XZ=              1.3074   YZ=              1.3888
 Octapole moment (field-independent basis, Debye-Ang**2):
  XXX=              1.8448  YYY=              4.2245  ZZZ=              0.1045  XYY=              4.1074
  XXY=              1.3447  XXZ=              1.7638  XZZ=              0.6003  YZZ=              1.5403
  YYZ=              1.5536  XYZ=              1.7934
 Hexadecapole moment (field-independent basis, Debye-Ang**3):
 XXXX=           -147.0010 YYYY=            -53.9471 ZZZZ=            -26.3089 XXXY=              6.7636
 XXXZ=              2.5947 YYYX=              5.4093 YYYZ=              2.0754 ZZZX=              0.8307
 ZZZY=              1.1068 XXYY=            -28.1149 XXZZ=            -27.3875 YYZZ=            -13.8355
 XXYZ=              2.5720 YYXZ=              2.0328 ZZXY=              0.9047
 N-N= 1.101135993863D+02 E-N=-1.524176403649D+03  KE= 5.482162222967D+02
                          Isotropic Fermi Contact Couplings
        Atom                 a.u.       MegaHertz       Gauss      10(-4) cm-1
     1  S(33)              0.05457      18.74314       6.68802       6.25204
     2  O(17)              0.02621     -15.88885      -5.66954      -5.29995
     3  O(17)              0.03613     -21.90352      -7.81572      -7.30623
     4  H(1)               0.00593      26.49153       9.45284       8.83662
 --------------------------------------------------------
       Center         ----  Spin Dipole Couplings  ----
                      3XX-RR        3YY-RR        3ZZ-RR
 --------------------------------------------------------
     1   Atom       -1.466608     -1.574067      3.040675
     2   Atom       -0.194287     -0.139985      0.334271
     3   Atom       -0.813986     -0.824576      1.638563
     4   Atom       -0.004336      0.013875     -0.009540
 --------------------------------------------------------
                        XY            XZ            YZ
 --------------------------------------------------------
     1   Atom       -0.006091     -0.069640      0.306218
     2   Atom        0.009776      0.007164     -0.158286
     3   Atom        0.005921      0.122981      0.093769
     4   Atom        0.007306      0.002161      0.007945
 --------------------------------------------------------


 ---------------------------------------------------------------------------------
              Anisotropic Spin Dipole Couplings in Principal Axis System
 ---------------------------------------------------------------------------------

       Atom             a.u.   MegaHertz   Gauss  10(-4) cm-1        Axes

              Baa    -1.5943   -65.365   -23.324   -21.804  0.0117  0.9978 -0.0657
     1 S(33)  Bbb    -1.4677   -60.173   -21.471   -20.072  0.9998 -0.0107  0.0162
              Bcc     3.0620   125.539    44.795    41.875 -0.0154  0.0659  0.9977
 
              Baa    -0.2030    14.689     5.241     4.900  0.7961 -0.5775 -0.1807
     2 O(17)  Bbb    -0.1793    12.972     4.629     4.327  0.6051  0.7632  0.2268
              Bcc     0.3823   -27.661    -9.870    -9.227  0.0070 -0.2899  0.9570
 
              Baa    -0.8283    59.937    21.387    19.993 -0.1500  0.9882 -0.0301
     3 O(17)  Bbb    -0.8200    59.331    21.171    19.791  0.9874  0.1482 -0.0550
              Bcc     1.6483  -119.269   -42.558   -39.784  0.0499  0.0380  0.9980
 
              Baa    -0.0120    -6.393    -2.281    -2.133  0.0143 -0.2974  0.9546
     4 H(1)   Bbb    -0.0068    -3.650    -1.302    -1.217  0.9498 -0.2943 -0.1059
              Bcc     0.0188    10.043     3.584     3.350  0.3125  0.9083  0.2782
 

 ---------------------------------------------------------------------------------

 1\1\GINC-QCEXNOD57\SP\UB3LYP\6-311+G(3df)\H1O2S1(2)\ROOT\16-Jul-2026\0
 \\#sp b3lyp/6-311+G(3df)\\single point of HOSO\\0,2\S,0,-0.14317,-0.47
 1675,0.023424\O,0,1.328478,0.256099,-0.063462\O,0,-1.205263,0.545268,-
 0.029893\H,0,1.310997,1.105861,0.504065\\Version=ES64L-G16RevA.03\Stat
 e=2-A\HF=-549.2916329\S2=0.755343\S2-1=0.\S2A=0.75002\RMSD=4.567e-09\D
 ipole=0.5167379,-0.0223764,0.378101\Quadrupole=-2.0328044,1.5837807,0.
 4490237,2.4918418,0.9932862,1.071713\PG=C01 [X(H1O2S1)]\\@


 This summer one third of the nation will be ill-housed
 ill-nourished and ill-clad. Only they call it a vacation.
 -- Jonas Salk
 Job cpu time:       0 days  0 hours  0 minutes 16.9 seconds.
 Elapsed time:       0 days  0 hours  0 minutes  8.9 seconds.
 File lengths (MBytes):  RWF=     16 Int=      0 D2E=      0 Chk=      2 Scr=      1
 Normal termination of Gaussian 16 at Thu Jul 16 14:38:03 2026.
