 Entering Gaussian System, Link 0=g16
 Initial command:
 /soft/g16.a03/g16/l1.exe "/scr/macias/296007.qcexmaster.qcexval.uv.es_vib2_-0.20/Gau-14650.inp" -scrdir="/scr/macias/296007.qcexmaster.qcexval.uv.es_vib2_-0.20/"
 Entering Link 1 = /soft/g16.a03/g16/l1.exe PID=     14677.
  
 Copyright (c) 1988,1990,1992,1993,1995,1998,2003,2009,2016,
            Gaussian, Inc.  All Rights Reserved.
  
 This is part of the Gaussian(R) 16 program.  It is based on
 the Gaussian(R) 09 system (copyright 2009, Gaussian, Inc.),
 the Gaussian(R) 03 system (copyright 2003, Gaussian, Inc.),
 the Gaussian(R) 98 system (copyright 1998, Gaussian, Inc.),
 the Gaussian(R) 94 system (copyright 1995, Gaussian, Inc.),
 the Gaussian 92(TM) system (copyright 1992, Gaussian, Inc.),
 the Gaussian 90(TM) system (copyright 1990, Gaussian, Inc.),
 the Gaussian 88(TM) system (copyright 1988, Gaussian, Inc.),
 the Gaussian 86(TM) system (copyright 1986, Carnegie Mellon
 University), and the Gaussian 82(TM) system (copyright 1983,
 Carnegie Mellon University). Gaussian is a federally registered
 trademark of Gaussian, Inc.
  
 This software contains proprietary and confidential information,
 including trade secrets, belonging to Gaussian, Inc.
  
 This software is provided under written license and may be
 used, copied, transmitted, or stored only in accord with that
 written license.
  
 The following legend is applicable only to US Government
 contracts under FAR:
  
                    RESTRICTED RIGHTS LEGEND
  
 Use, reproduction and disclosure by the US Government is
 subject to restrictions as set forth in subparagraphs (a)
 and (c) of the Commercial Computer Software - Restricted
 Rights clause in FAR 52.227-19.
  
 Gaussian, Inc.
 340 Quinnipiac St., Bldg. 40, Wallingford CT 06492
  
  
 ---------------------------------------------------------------
 Warning -- This program may not be used in any manner that
 competes with the business of Gaussian, Inc. or will provide
 assistance to any competitor of Gaussian, Inc.  The licensee
 of this program is prohibited from giving any competitor of
 Gaussian, Inc. access to this program.  By using this program,
 the user acknowledges that Gaussian, Inc. is engaged in the
 business of creating and licensing software in the field of
 computational chemistry and represents and warrants to the
 licensee that it is not a competitor of Gaussian, Inc. and that
 it will not use this program in any manner prohibited above.
 ---------------------------------------------------------------
  

 Cite this work as:
 Gaussian 16, Revision A.03,
 M. J. Frisch, G. W. Trucks, H. B. Schlegel, G. E. Scuseria, 
 M. A. Robb, J. R. Cheeseman, G. Scalmani, V. Barone, 
 G. A. Petersson, H. Nakatsuji, X. Li, M. Caricato, A. V. Marenich, 
 J. Bloino, B. G. Janesko, R. Gomperts, B. Mennucci, H. P. Hratchian, 
 J. V. Ortiz, A. F. Izmaylov, J. L. Sonnenberg, D. Williams-Young, 
 F. Ding, F. Lipparini, F. Egidi, J. Goings, B. Peng, A. Petrone, 
 T. Henderson, D. Ranasinghe, V. G. Zakrzewski, J. Gao, N. Rega, 
 G. Zheng, W. Liang, M. Hada, M. Ehara, K. Toyota, R. Fukuda, 
 J. Hasegawa, M. Ishida, T. Nakajima, Y. Honda, O. Kitao, H. Nakai, 
 T. Vreven, K. Throssell, J. A. Montgomery, Jr., J. E. Peralta, 
 F. Ogliaro, M. J. Bearpark, J. J. Heyd, E. N. Brothers, K. N. Kudin, 
 V. N. Staroverov, T. A. Keith, R. Kobayashi, J. Normand, 
 K. Raghavachari, A. P. Rendell, J. C. Burant, S. S. Iyengar, 
 J. Tomasi, M. Cossi, J. M. Millam, M. Klene, C. Adamo, R. Cammi, 
 J. W. Ochterski, R. L. Martin, K. Morokuma, O. Farkas, 
 J. B. Foresman, and D. J. Fox, Gaussian, Inc., Wallingford CT, 2016.
 
 ******************************************
 Gaussian 16:  ES64L-G16RevA.03 25-Dec-2016
                16-Jul-2026 
 ******************************************
 %chk=opt_freq.chk
 %nproc=2
 Will use up to    2 processors via shared memory.
 %mem=2GB
 ----------------------
 #sp b3lyp/6-311+G(3df)
 ----------------------
 1/38=1,172=1/1;
 2/12=2,17=6,18=5,40=1/2;
 3/5=4,6=6,7=16,11=2,25=1,30=1,74=-5/1,2,3;
 4//1;
 5/5=2,38=5/2;
 6/7=2,8=2,9=2,10=2,28=1/1;
 99/5=1,9=1/99;
 --------------------
 single point of HOSO
 --------------------
 Symbolic Z-matrix:
 Charge =  0 Multiplicity = 2
 S                    -0.14517  -0.51368   0.01842 
 O                     1.27248   0.2921   -0.04946 
 O                    -1.12826   0.58727  -0.02189 
 H                     1.089     1.18386   0.31207 
 
                          Input orientation:                          
 ---------------------------------------------------------------------
 Center     Atomic      Atomic             Coordinates (Angstroms)
 Number     Number       Type             X           Y           Z
 ---------------------------------------------------------------------
      1         16           0       -0.145170   -0.513675    0.018424
      2          8           0        1.272478    0.292099   -0.049462
      3          8           0       -1.128263    0.587268   -0.021893
      4          1           0        1.088997    1.183861    0.312065
 ---------------------------------------------------------------------
                    Distance matrix (angstroms):
                    1          2          3          4
     1  S    0.000000
     2  O    1.632056   0.000000
     3  O    1.476541   2.418975   0.000000
     4  H    2.119203   0.979595   2.320279   0.000000
 Stoichiometry    HO2S(2)
 Framework group  C1[X(HO2S)]
 Deg. of freedom     6
 Full point group                 C1      NOp   1
 Largest Abelian subgroup         C1      NOp   1
 Largest concise Abelian subgroup C1      NOp   1
                         Standard orientation:                         
 ---------------------------------------------------------------------
 Center     Atomic      Atomic             Coordinates (Angstroms)
 Number     Number       Type             X           Y           Z
 ---------------------------------------------------------------------
      1         16           0       -0.147853   -0.512231    0.017261
      2          8           0        1.277762    0.279408   -0.050086
      3          8           0       -1.119934    0.598436   -0.023363
      4          1           0        1.103030    1.172937    0.311412
 ---------------------------------------------------------------------
 Rotational constants (GHZ):          30.0283701          10.4670314           7.7959492
 Standard basis: 6-311+G(3df) (5D, 7F)
 There are   146 symmetry adapted cartesian basis functions of A   symmetry.
 There are   128 symmetry adapted basis functions of A   symmetry.
   128 basis functions,   193 primitive gaussians,   146 cartesian basis functions
    17 alpha electrons       16 beta electrons
       nuclear repulsion energy       111.5186925441 Hartrees.
 NAtoms=    4 NActive=    4 NUniq=    4 SFac= 1.00D+00 NAtFMM=   60 NAOKFM=F Big=F
 Integral buffers will be    131072 words long.
 Raffenetti 2 integral format.
 Two-electron integral symmetry is turned on.
 One-electron integrals computed using PRISM.
 NBasis=   128 RedAO= T EigKep=  9.95D-04  NBF=   128
 NBsUse=   128 1.00D-06 EigRej= -1.00D+00 NBFU=   128
 ExpMin= 4.05D-02 ExpMax= 9.34D+04 ExpMxC= 3.17D+03 IAcc=3 IRadAn=         5 AccDes= 0.00D+00
 Harris functional with IExCor=  402 and IRadAn=       5 diagonalized for initial guess.
 HarFok:  IExCor=  402 AccDes= 0.00D+00 IRadAn=         5 IDoV= 1 UseB2=F ITyADJ=14
 ICtDFT=  3500011 ScaDFX=  1.000000  1.000000  1.000000  1.000000
 FoFCou: FMM=F IPFlag=           0 FMFlag=      100000 FMFlg1=           0
         NFxFlg=           0 DoJE=T BraDBF=F KetDBF=T FulRan=T
         wScrn=  0.000000 ICntrl=       500 IOpCl=  0 I1Cent=   200000004 NGrid=           0
         NMat0=    1 NMatS0=      1 NMatT0=    0 NMatD0=    1 NMtDS0=    0 NMtDT0=    0
 Petite list used in FoFCou.
 Initial guess <Sx>= 0.0000 <Sy>= 0.0000 <Sz>= 0.5000 <S**2>= 0.7500 S= 0.5000
 Keep R1 and R2 ints in memory in canonical form, NReq=70152829.
 Requested convergence on RMS density matrix=1.00D-08 within 128 cycles.
 Requested convergence on MAX density matrix=1.00D-06.
 Requested convergence on             energy=1.00D-06.
 No special actions if energy rises.
 SCF Done:  E(UB3LYP) =  -549.291117049     A.U. after   14 cycles
            NFock= 14  Conv=0.40D-08     -V/T= 2.0018
 <Sx>= 0.0000 <Sy>= 0.0000 <Sz>= 0.5000 <S**2>= 0.7552 S= 0.5026
 <L.S>= 0.000000000000E+00
 Annihilation of the first spin contaminant:
 S**2 before annihilation     0.7552,   after     0.7500

 **********************************************************************

            Population analysis using the SCF density.

 **********************************************************************

 Orbital symmetries:
 Alpha Orbitals:
       Occupied  (A) (A) (A) (A) (A) (A) (A) (A) (A) (A) (A) (A)
                 (A) (A) (A) (A) (A)
       Virtual   (A) (A) (A) (A) (A) (A) (A) (A) (A) (A) (A) (A)
                 (A) (A) (A) (A) (A) (A) (A) (A) (A) (A) (A) (A)
                 (A) (A) (A) (A) (A) (A) (A) (A) (A) (A) (A) (A)
                 (A) (A) (A) (A) (A) (A) (A) (A) (A) (A) (A) (A)
                 (A) (A) (A) (A) (A) (A) (A) (A) (A) (A) (A) (A)
                 (A) (A) (A) (A) (A) (A) (A) (A) (A) (A) (A) (A)
                 (A) (A) (A) (A) (A) (A) (A) (A) (A) (A) (A) (A)
                 (A) (A) (A) (A) (A) (A) (A) (A) (A) (A) (A) (A)
                 (A) (A) (A) (A) (A) (A) (A) (A) (A) (A) (A) (A)
                 (A) (A) (A)
 Beta  Orbitals:
       Occupied  (A) (A) (A) (A) (A) (A) (A) (A) (A) (A) (A) (A)
                 (A) (A) (A) (A)
       Virtual   (A) (A) (A) (A) (A) (A) (A) (A) (A) (A) (A) (A)
                 (A) (A) (A) (A) (A) (A) (A) (A) (A) (A) (A) (A)
                 (A) (A) (A) (A) (A) (A) (A) (A) (A) (A) (A) (A)
                 (A) (A) (A) (A) (A) (A) (A) (A) (A) (A) (A) (A)
                 (A) (A) (A) (A) (A) (A) (A) (A) (A) (A) (A) (A)
                 (A) (A) (A) (A) (A) (A) (A) (A) (A) (A) (A) (A)
                 (A) (A) (A) (A) (A) (A) (A) (A) (A) (A) (A) (A)
                 (A) (A) (A) (A) (A) (A) (A) (A) (A) (A) (A) (A)
                 (A) (A) (A) (A) (A) (A) (A) (A) (A) (A) (A) (A)
                 (A) (A) (A) (A)
 The electronic state is 2-A.
 Alpha  occ. eigenvalues --  -88.98667 -19.19163 -19.16062  -8.05990  -6.02376
 Alpha  occ. eigenvalues --   -6.02147  -6.01806  -1.12300  -1.04000  -0.70439
 Alpha  occ. eigenvalues --   -0.54301  -0.48648  -0.47604  -0.42351  -0.38147
 Alpha  occ. eigenvalues --   -0.33998  -0.23877
 Alpha virt. eigenvalues --   -0.03495  -0.00389   0.01523   0.04111   0.05104
 Alpha virt. eigenvalues --    0.07313   0.12151   0.14733   0.16760   0.17081
 Alpha virt. eigenvalues --    0.18277   0.20347   0.22938   0.24832   0.25500
 Alpha virt. eigenvalues --    0.27930   0.28337   0.30514   0.31103   0.33040
 Alpha virt. eigenvalues --    0.34302   0.39677   0.48334   0.60067   0.67728
 Alpha virt. eigenvalues --    0.73002   0.77388   0.80944   0.84908   0.86253
 Alpha virt. eigenvalues --    0.87006   0.88373   0.91204   0.93694   0.97511
 Alpha virt. eigenvalues --    0.99675   1.01229   1.03584   1.04498   1.08423
 Alpha virt. eigenvalues --    1.13216   1.22041   1.22905   1.28678   1.29645
 Alpha virt. eigenvalues --    1.33943   1.57052   1.58979   1.64249   1.72455
 Alpha virt. eigenvalues --    1.84435   1.92821   1.97858   1.98726   2.04638
 Alpha virt. eigenvalues --    2.10691   2.19123   2.26153   2.35842   3.28932
 Alpha virt. eigenvalues --    3.35222   3.36649   3.38806   3.42373   3.45793
 Alpha virt. eigenvalues --    3.46901   3.52851   3.59416   3.60681   4.42823
 Alpha virt. eigenvalues --    4.45236   4.49936   4.59611   4.78854   4.89102
 Alpha virt. eigenvalues --    4.92209   4.92554   4.93917   4.96430   4.97930
 Alpha virt. eigenvalues --    5.00200   5.00812   5.06643   5.13799   5.15590
 Alpha virt. eigenvalues --    5.30875   5.36305   5.44041   5.46864   5.55823
 Alpha virt. eigenvalues --    5.57834   5.73088   5.88727   6.52566   8.62013
 Alpha virt. eigenvalues --   14.19435  14.23216  14.23930  14.26013  14.29191
 Alpha virt. eigenvalues --   14.32001  14.33065  14.36203  14.48544  14.58013
 Alpha virt. eigenvalues --   17.21654  17.49646  17.70956  49.88876  49.95840
 Alpha virt. eigenvalues --  189.59192
  Beta  occ. eigenvalues --  -88.98279 -19.18907 -19.15054  -8.05635  -6.02167
  Beta  occ. eigenvalues --   -6.01623  -6.00899  -1.11265  -1.02610  -0.68308
  Beta  occ. eigenvalues --   -0.53157  -0.47915  -0.44535  -0.40386  -0.34849
  Beta  occ. eigenvalues --   -0.33049
  Beta virt. eigenvalues --   -0.12130  -0.02836  -0.00055   0.01939   0.04489
  Beta virt. eigenvalues --    0.05767   0.07555   0.12448   0.15040   0.17127
  Beta virt. eigenvalues --    0.17364   0.18646   0.20763   0.23227   0.24945
  Beta virt. eigenvalues --    0.26720   0.28346   0.29272   0.31157   0.32498
  Beta virt. eigenvalues --    0.33471   0.34978   0.40568   0.48516   0.60487
  Beta virt. eigenvalues --    0.68266   0.73320   0.77846   0.82061   0.85727
  Beta virt. eigenvalues --    0.87145   0.88010   0.89475   0.92254   0.94340
  Beta virt. eigenvalues --    0.98255   1.00654   1.03364   1.04165   1.04965
  Beta virt. eigenvalues --    1.09099   1.14271   1.22709   1.23958   1.29485
  Beta virt. eigenvalues --    1.30039   1.34306   1.60449   1.60815   1.65952
  Beta virt. eigenvalues --    1.73981   1.85293   1.94396   1.98451   2.01186
  Beta virt. eigenvalues --    2.04782   2.11248   2.19723   2.27059   2.36247
  Beta virt. eigenvalues --    3.29896   3.37001   3.38889   3.40259   3.43401
  Beta virt. eigenvalues --    3.46586   3.48844   3.53534   3.60334   3.61253
  Beta virt. eigenvalues --    4.43589   4.45325   4.50970   4.60239   4.79482
  Beta virt. eigenvalues --    4.89780   4.92786   4.93485   4.94810   4.97689
  Beta virt. eigenvalues --    5.01551   5.02501   5.02793   5.07239   5.15175
  Beta virt. eigenvalues --    5.16451   5.31508   5.36812   5.44830   5.47794
  Beta virt. eigenvalues --    5.56645   5.58509   5.74918   5.89123   6.52988
  Beta virt. eigenvalues --    8.62501  14.20716  14.25855  14.27147  14.27657
  Beta virt. eigenvalues --   14.30637  14.33539  14.35850  14.37120  14.48918
  Beta virt. eigenvalues --   14.59742  17.23307  17.49942  17.71249  49.89131
  Beta virt. eigenvalues --   49.96840 189.59543
          Condensed to atoms (all electrons):
               1          2          3          4
     1  S   15.280295   0.025670   0.156256   0.003311
     2  O    0.025670   8.400056  -0.017552   0.201500
     3  O    0.156256  -0.017552   8.258683   0.003808
     4  H    0.003311   0.201500   0.003808   0.314982
          Atomic-Atomic Spin Densities.
               1          2          3          4
     1  S    0.914075  -0.092594  -0.184688  -0.003206
     2  O   -0.092594   0.134044   0.020282  -0.005714
     3  O   -0.184688   0.020282   0.471706   0.000433
     4  H   -0.003206  -0.005714   0.000433   0.011150
 Mulliken charges and spin densities:
               1          2
     1  S    0.534469   0.633587
     2  O   -0.609673   0.056018
     3  O   -0.401195   0.307733
     4  H    0.476400   0.002662
 Sum of Mulliken charges =  -0.00000   1.00000
 Mulliken charges and spin densities with hydrogens summed into heavy atoms:
               1          2
     1  S    0.534469   0.633587
     2  O   -0.133274   0.058680
     3  O   -0.401195   0.307733
 Electronic spatial extent (au):  <R**2>=            174.5505
 Charge=             -0.0000 electrons
 Dipole moment (field-independent basis, Debye):
    X=              1.0040    Y=             -0.2949    Z=              0.6116  Tot=              1.2120
 Quadrupole moment (field-independent basis, Debye-Ang):
   XX=            -27.1172   YY=            -21.3403   ZZ=            -23.7232
   XY=              3.0734   XZ=              0.7146   YZ=              0.9767
 Traceless Quadrupole moment (field-independent basis, Debye-Ang):
   XX=             -3.0570   YY=              2.7199   ZZ=              0.3370
   XY=              3.0734   XZ=              0.7146   YZ=              0.9767
 Octapole moment (field-independent basis, Debye-Ang**2):
  XXX=              0.4020  YYY=              4.7877  ZZZ=             -0.0224  XYY=              4.1294
  XXY=              0.1601  XXZ=              0.7244  XZZ=              0.2183  YZZ=              1.2771
  YYZ=              1.1386  XYZ=              1.0823
 Hexadecapole moment (field-independent basis, Debye-Ang**3):
 XXXX=           -136.1429 YYYY=            -57.9905 ZZZZ=            -25.8248 XXXY=              4.6912
 XXXZ=              0.9403 YYYX=              5.4372 YYYZ=              1.5949 ZZZX=              0.3905
 ZZZY=              0.6840 XXYY=            -27.5031 XXZZ=            -25.8929 YYZZ=            -15.0439
 XXYZ=              1.3696 YYXZ=              1.2901 ZZXY=              0.4264
 N-N= 1.115186925441D+02 E-N=-1.526999633074D+03  KE= 5.483087535151D+02
                          Isotropic Fermi Contact Couplings
        Atom                 a.u.       MegaHertz       Gauss      10(-4) cm-1
     1  S(33)              0.04950      17.00363       6.06732       5.67180
     2  O(17)              0.01823     -11.04856      -3.94240      -3.68540
     3  O(17)              0.03501     -21.22029      -7.57193      -7.07833
     4  H(1)               0.00146       6.53734       2.33269       2.18062
 --------------------------------------------------------
       Center         ----  Spin Dipole Couplings  ----
                      3XX-RR        3YY-RR        3ZZ-RR
 --------------------------------------------------------
     1   Atom       -1.472558     -1.583694      3.056252
     2   Atom       -0.222532     -0.185413      0.407944
     3   Atom       -0.786954     -0.794203      1.581157
     4   Atom       -0.005898      0.016911     -0.011013
 --------------------------------------------------------
                        XY            XZ            YZ
 --------------------------------------------------------
     1   Atom       -0.005819     -0.073323      0.169607
     2   Atom       -0.000281      0.036722     -0.131737
     3   Atom        0.003420      0.083310      0.021782
     4   Atom        0.002916      0.001218      0.005896
 --------------------------------------------------------


 ---------------------------------------------------------------------------------
              Anisotropic Spin Dipole Couplings in Principal Axis System
 ---------------------------------------------------------------------------------

       Atom             a.u.   MegaHertz   Gauss  10(-4) cm-1        Axes

              Baa    -1.5900   -65.187   -23.260   -21.744  0.0270  0.9990 -0.0360
     1 S(33)  Bbb    -1.4737   -60.419   -21.559   -20.154  0.9995 -0.0264  0.0172
              Bcc     3.0636   125.606    44.819    41.898 -0.0162  0.0365  0.9992
 
              Baa    -0.2281    16.507     5.890     5.506  0.8946 -0.4246 -0.1396
     2 O(17)  Bbb    -0.2097    15.174     5.415     5.062  0.4436  0.8815  0.1616
              Bcc     0.4378   -31.682   -11.305   -10.568  0.0544 -0.2065  0.9769
 
              Baa    -0.7956    57.571    20.543    19.204 -0.4191  0.9079  0.0064
     3 O(17)  Bbb    -0.7887    57.067    20.363    19.035  0.9072  0.4191 -0.0357
              Bcc     1.5843  -114.638   -40.906   -38.239  0.0351  0.0092  0.9993
 
              Baa    -0.0123    -6.546    -2.336    -2.184 -0.1011 -0.1873  0.9771
     4 H(1)   Bbb    -0.0062    -3.324    -1.186    -1.109  0.9869 -0.1434  0.0747
              Bcc     0.0185     9.870     3.522     3.292  0.1261  0.9718  0.1994
 

 ---------------------------------------------------------------------------------

 1\1\GINC-QCEXNOD57\SP\UB3LYP\6-311+G(3df)\H1O2S1(2)\ROOT\16-Jul-2026\0
 \\#sp b3lyp/6-311+G(3df)\\single point of HOSO\\0,2\S,0,-0.14517,-0.51
 3675,0.018424\O,0,1.272478,0.292099,-0.049462\O,0,-1.128263,0.587268,-
 0.021893\H,0,1.088997,1.183861,0.312065\\Version=ES64L-G16RevA.03\Stat
 e=2-A\HF=-549.291117\S2=0.755176\S2-1=0.\S2A=0.750018\RMSD=3.993e-09\D
 ipole=0.3962168,-0.1120807,0.2404743\Quadrupole=-2.3174232,2.0672884,0
 .2501348,2.2421435,0.5248744,0.7305257\PG=C01 [X(H1O2S1)]\\@


 This summer one third of the nation will be ill-housed
 ill-nourished and ill-clad. Only they call it a vacation.
 -- Jonas Salk
 Job cpu time:       0 days  0 hours  0 minutes 17.3 seconds.
 Elapsed time:       0 days  0 hours  0 minutes  9.1 seconds.
 File lengths (MBytes):  RWF=     16 Int=      0 D2E=      0 Chk=      2 Scr=      1
 Normal termination of Gaussian 16 at Thu Jul 16 14:38:03 2026.
