 Entering Gaussian System, Link 0=g16
 Initial command:
 /soft/g16.a03/g16/l1.exe "/scr/macias/295999.qcexmaster.qcexval.uv.es_vib1_-0.30/Gau-14660.inp" -scrdir="/scr/macias/295999.qcexmaster.qcexval.uv.es_vib1_-0.30/"
 Entering Link 1 = /soft/g16.a03/g16/l1.exe PID=     14667.
  
 Copyright (c) 1988,1990,1992,1993,1995,1998,2003,2009,2016,
            Gaussian, Inc.  All Rights Reserved.
  
 This is part of the Gaussian(R) 16 program.  It is based on
 the Gaussian(R) 09 system (copyright 2009, Gaussian, Inc.),
 the Gaussian(R) 03 system (copyright 2003, Gaussian, Inc.),
 the Gaussian(R) 98 system (copyright 1998, Gaussian, Inc.),
 the Gaussian(R) 94 system (copyright 1995, Gaussian, Inc.),
 the Gaussian 92(TM) system (copyright 1992, Gaussian, Inc.),
 the Gaussian 90(TM) system (copyright 1990, Gaussian, Inc.),
 the Gaussian 88(TM) system (copyright 1988, Gaussian, Inc.),
 the Gaussian 86(TM) system (copyright 1986, Carnegie Mellon
 University), and the Gaussian 82(TM) system (copyright 1983,
 Carnegie Mellon University). Gaussian is a federally registered
 trademark of Gaussian, Inc.
  
 This software contains proprietary and confidential information,
 including trade secrets, belonging to Gaussian, Inc.
  
 This software is provided under written license and may be
 used, copied, transmitted, or stored only in accord with that
 written license.
  
 The following legend is applicable only to US Government
 contracts under FAR:
  
                    RESTRICTED RIGHTS LEGEND
  
 Use, reproduction and disclosure by the US Government is
 subject to restrictions as set forth in subparagraphs (a)
 and (c) of the Commercial Computer Software - Restricted
 Rights clause in FAR 52.227-19.
  
 Gaussian, Inc.
 340 Quinnipiac St., Bldg. 40, Wallingford CT 06492
  
  
 ---------------------------------------------------------------
 Warning -- This program may not be used in any manner that
 competes with the business of Gaussian, Inc. or will provide
 assistance to any competitor of Gaussian, Inc.  The licensee
 of this program is prohibited from giving any competitor of
 Gaussian, Inc. access to this program.  By using this program,
 the user acknowledges that Gaussian, Inc. is engaged in the
 business of creating and licensing software in the field of
 computational chemistry and represents and warrants to the
 licensee that it is not a competitor of Gaussian, Inc. and that
 it will not use this program in any manner prohibited above.
 ---------------------------------------------------------------
  

 Cite this work as:
 Gaussian 16, Revision A.03,
 M. J. Frisch, G. W. Trucks, H. B. Schlegel, G. E. Scuseria, 
 M. A. Robb, J. R. Cheeseman, G. Scalmani, V. Barone, 
 G. A. Petersson, H. Nakatsuji, X. Li, M. Caricato, A. V. Marenich, 
 J. Bloino, B. G. Janesko, R. Gomperts, B. Mennucci, H. P. Hratchian, 
 J. V. Ortiz, A. F. Izmaylov, J. L. Sonnenberg, D. Williams-Young, 
 F. Ding, F. Lipparini, F. Egidi, J. Goings, B. Peng, A. Petrone, 
 T. Henderson, D. Ranasinghe, V. G. Zakrzewski, J. Gao, N. Rega, 
 G. Zheng, W. Liang, M. Hada, M. Ehara, K. Toyota, R. Fukuda, 
 J. Hasegawa, M. Ishida, T. Nakajima, Y. Honda, O. Kitao, H. Nakai, 
 T. Vreven, K. Throssell, J. A. Montgomery, Jr., J. E. Peralta, 
 F. Ogliaro, M. J. Bearpark, J. J. Heyd, E. N. Brothers, K. N. Kudin, 
 V. N. Staroverov, T. A. Keith, R. Kobayashi, J. Normand, 
 K. Raghavachari, A. P. Rendell, J. C. Burant, S. S. Iyengar, 
 J. Tomasi, M. Cossi, J. M. Millam, M. Klene, C. Adamo, R. Cammi, 
 J. W. Ochterski, R. L. Martin, K. Morokuma, O. Farkas, 
 J. B. Foresman, and D. J. Fox, Gaussian, Inc., Wallingford CT, 2016.
 
 ******************************************
 Gaussian 16:  ES64L-G16RevA.03 25-Dec-2016
                16-Jul-2026 
 ******************************************
 %chk=opt_freq.chk
 %nproc=2
 Will use up to    2 processors via shared memory.
 %mem=2GB
 ----------------------
 #sp b3lyp/6-311+G(3df)
 ----------------------
 1/38=1,172=1/1;
 2/12=2,17=6,18=5,40=1/2;
 3/5=4,6=6,7=16,11=2,25=1,30=1,74=-5/1,2,3;
 4//1;
 5/5=2,38=5/2;
 6/7=2,8=2,9=2,10=2,28=1/1;
 99/5=1,9=1/99;
 --------------------
 single point of HOSO
 --------------------
 Symbolic Z-matrix:
 Charge =  0 Multiplicity = 2
 S                    -0.14317  -0.48368   0.00542 
 O                     1.32848   0.2561   -0.01546 
 O                    -1.18726   0.55727  -0.00589 
 H                     1.155     1.26186  -0.04794 
 
                          Input orientation:                          
 ---------------------------------------------------------------------
 Center     Atomic      Atomic             Coordinates (Angstroms)
 Number     Number       Type             X           Y           Z
 ---------------------------------------------------------------------
      1         16           0       -0.143170   -0.483675    0.005424
      2          8           0        1.328478    0.256099   -0.015462
      3          8           0       -1.187263    0.557268   -0.005893
      4          1           0        1.154997    1.261861   -0.047935
 ---------------------------------------------------------------------
                    Distance matrix (angstroms):
                    1          2          3          4
     1  S    0.000000
     2  O    1.647255   0.000000
     3  O    1.474388   2.533722   0.000000
     4  H    2.176001   1.021130   2.446303   0.000000
 Stoichiometry    HO2S(2)
 Framework group  C1[X(HO2S)]
 Deg. of freedom     6
 Full point group                 C1      NOp   1
 Largest Abelian subgroup         C1      NOp   1
 Largest concise Abelian subgroup C1      NOp   1
                         Standard orientation:                         
 ---------------------------------------------------------------------
 Center     Atomic      Atomic             Coordinates (Angstroms)
 Number     Number       Type             X           Y           Z
 ---------------------------------------------------------------------
      1         16           0        0.142923   -0.484694    0.000819
      2          8           0       -1.328641    0.255535   -0.002097
      3          8           0        1.187185    0.556140   -0.001063
      4          1           0       -1.155120    1.261712    0.012178
 ---------------------------------------------------------------------
 Rotational constants (GHZ):          33.6327302           9.5690162           7.4495688
 Standard basis: 6-311+G(3df) (5D, 7F)
 There are   146 symmetry adapted cartesian basis functions of A   symmetry.
 There are   128 symmetry adapted basis functions of A   symmetry.
   128 basis functions,   193 primitive gaussians,   146 cartesian basis functions
    17 alpha electrons       16 beta electrons
       nuclear repulsion energy       110.1945959580 Hartrees.
 NAtoms=    4 NActive=    4 NUniq=    4 SFac= 1.00D+00 NAtFMM=   60 NAOKFM=F Big=F
 Integral buffers will be    131072 words long.
 Raffenetti 2 integral format.
 Two-electron integral symmetry is turned on.
 One-electron integrals computed using PRISM.
 NBasis=   128 RedAO= T EigKep=  9.64D-04  NBF=   128
 NBsUse=   128 1.00D-06 EigRej= -1.00D+00 NBFU=   128
 ExpMin= 4.05D-02 ExpMax= 9.34D+04 ExpMxC= 3.17D+03 IAcc=3 IRadAn=         5 AccDes= 0.00D+00
 Harris functional with IExCor=  402 and IRadAn=       5 diagonalized for initial guess.
 HarFok:  IExCor=  402 AccDes= 0.00D+00 IRadAn=         5 IDoV= 1 UseB2=F ITyADJ=14
 ICtDFT=  3500011 ScaDFX=  1.000000  1.000000  1.000000  1.000000
 FoFCou: FMM=F IPFlag=           0 FMFlag=      100000 FMFlg1=           0
         NFxFlg=           0 DoJE=T BraDBF=F KetDBF=T FulRan=T
         wScrn=  0.000000 ICntrl=       500 IOpCl=  0 I1Cent=   200000004 NGrid=           0
         NMat0=    1 NMatS0=      1 NMatT0=    0 NMatD0=    1 NMtDS0=    0 NMtDT0=    0
 Petite list used in FoFCou.
 Initial guess <Sx>= 0.0000 <Sy>= 0.0000 <Sz>= 0.5000 <S**2>= 0.7500 S= 0.5000
 Keep R1 and R2 ints in memory in canonical form, NReq=70152760.
 Requested convergence on RMS density matrix=1.00D-08 within 128 cycles.
 Requested convergence on MAX density matrix=1.00D-06.
 Requested convergence on             energy=1.00D-06.
 No special actions if energy rises.
 SCF Done:  E(UB3LYP) =  -549.291803846     A.U. after   14 cycles
            NFock= 14  Conv=0.23D-08     -V/T= 2.0020
 <Sx>= 0.0000 <Sy>= 0.0000 <Sz>= 0.5000 <S**2>= 0.7552 S= 0.5026
 <L.S>= 0.000000000000E+00
 Annihilation of the first spin contaminant:
 S**2 before annihilation     0.7552,   after     0.7500

 **********************************************************************

            Population analysis using the SCF density.

 **********************************************************************

 Orbital symmetries:
 Alpha Orbitals:
       Occupied  (A) (A) (A) (A) (A) (A) (A) (A) (A) (A) (A) (A)
                 (A) (A) (A) (A) (A)
       Virtual   (A) (A) (A) (A) (A) (A) (A) (A) (A) (A) (A) (A)
                 (A) (A) (A) (A) (A) (A) (A) (A) (A) (A) (A) (A)
                 (A) (A) (A) (A) (A) (A) (A) (A) (A) (A) (A) (A)
                 (A) (A) (A) (A) (A) (A) (A) (A) (A) (A) (A) (A)
                 (A) (A) (A) (A) (A) (A) (A) (A) (A) (A) (A) (A)
                 (A) (A) (A) (A) (A) (A) (A) (A) (A) (A) (A) (A)
                 (A) (A) (A) (A) (A) (A) (A) (A) (A) (A) (A) (A)
                 (A) (A) (A) (A) (A) (A) (A) (A) (A) (A) (A) (A)
                 (A) (A) (A) (A) (A) (A) (A) (A) (A) (A) (A) (A)
                 (A) (A) (A)
 Beta  Orbitals:
       Occupied  (A) (A) (A) (A) (A) (A) (A) (A) (A) (A) (A) (A)
                 (A) (A) (A) (A)
       Virtual   (A) (A) (A) (A) (A) (A) (A) (A) (A) (A) (A) (A)
                 (A) (A) (A) (A) (A) (A) (A) (A) (A) (A) (A) (A)
                 (A) (A) (A) (A) (A) (A) (A) (A) (A) (A) (A) (A)
                 (A) (A) (A) (A) (A) (A) (A) (A) (A) (A) (A) (A)
                 (A) (A) (A) (A) (A) (A) (A) (A) (A) (A) (A) (A)
                 (A) (A) (A) (A) (A) (A) (A) (A) (A) (A) (A) (A)
                 (A) (A) (A) (A) (A) (A) (A) (A) (A) (A) (A) (A)
                 (A) (A) (A) (A) (A) (A) (A) (A) (A) (A) (A) (A)
                 (A) (A) (A) (A) (A) (A) (A) (A) (A) (A) (A) (A)
                 (A) (A) (A) (A)
 The electronic state is 2-A.
 Alpha  occ. eigenvalues --  -88.98435 -19.19791 -19.16367  -8.05746  -6.02131
 Alpha  occ. eigenvalues --   -6.01899  -6.01567  -1.11399  -1.04183  -0.69928
 Alpha  occ. eigenvalues --   -0.53803  -0.48210  -0.47610  -0.42087  -0.38765
 Alpha  occ. eigenvalues --   -0.34407  -0.23326
 Alpha virt. eigenvalues --   -0.03177  -0.00214   0.01334   0.03317   0.04548
 Alpha virt. eigenvalues --    0.07482   0.11591   0.14865   0.16400   0.16861
 Alpha virt. eigenvalues --    0.18716   0.20005   0.23304   0.24627   0.25391
 Alpha virt. eigenvalues --    0.28158   0.28885   0.29457   0.30928   0.32145
 Alpha virt. eigenvalues --    0.33264   0.42140   0.45660   0.60250   0.69646
 Alpha virt. eigenvalues --    0.71696   0.78998   0.79228   0.86513   0.87837
 Alpha virt. eigenvalues --    0.88410   0.88463   0.91669   0.94148   0.96056
 Alpha virt. eigenvalues --    1.00111   1.00790   1.03217   1.04852   1.07621
 Alpha virt. eigenvalues --    1.12207   1.19656   1.23310   1.28122   1.29918
 Alpha virt. eigenvalues --    1.32968   1.57056   1.58693   1.65235   1.70444
 Alpha virt. eigenvalues --    1.83065   1.92879   1.96872   1.99093   2.03115
 Alpha virt. eigenvalues --    2.10665   2.22181   2.25904   2.37553   3.27791
 Alpha virt. eigenvalues --    3.32834   3.36305   3.39014   3.40822   3.45978
 Alpha virt. eigenvalues --    3.46844   3.51123   3.59342   3.59959   4.42949
 Alpha virt. eigenvalues --    4.46540   4.50142   4.58766   4.79655   4.89081
 Alpha virt. eigenvalues --    4.92373   4.93583   4.95614   4.95678   4.97341
 Alpha virt. eigenvalues --    4.99795   5.00674   5.05027   5.12894   5.14405
 Alpha virt. eigenvalues --    5.27958   5.33679   5.41922   5.42949   5.53671
 Alpha virt. eigenvalues --    5.57544   5.73273   5.87384   6.44876   8.61519
 Alpha virt. eigenvalues --   14.18468  14.21967  14.23572  14.25872  14.27473
 Alpha virt. eigenvalues --   14.31091  14.32070  14.35393  14.47508  14.57627
 Alpha virt. eigenvalues --   17.21624  17.47138  17.72686  49.87817  49.96065
 Alpha virt. eigenvalues --  189.57638
  Beta  occ. eigenvalues --  -88.98040 -19.19469 -19.15382  -8.05387  -6.01920
  Beta  occ. eigenvalues --   -6.01382  -6.00631  -1.10236  -1.02851  -0.67778
  Beta  occ. eigenvalues --   -0.52827  -0.47662  -0.43712  -0.40865  -0.35042
  Beta  occ. eigenvalues --   -0.33390
  Beta virt. eigenvalues --   -0.11614  -0.02649   0.00198   0.02009   0.03890
  Beta virt. eigenvalues --    0.04774   0.07627   0.11840   0.15110   0.16878
  Beta virt. eigenvalues --    0.17060   0.19594   0.20003   0.23502   0.24692
  Beta virt. eigenvalues --    0.26723   0.28473   0.29549   0.30647   0.32554
  Beta virt. eigenvalues --    0.32846   0.33441   0.42830   0.45789   0.60682
  Beta virt. eigenvalues --    0.70243   0.72104   0.79496   0.80271   0.87493
  Beta virt. eigenvalues --    0.88089   0.89322   0.90046   0.92840   0.94669
  Beta virt. eigenvalues --    0.97082   1.01030   1.03064   1.03487   1.05124
  Beta virt. eigenvalues --    1.08274   1.13580   1.19988   1.24949   1.28409
  Beta virt. eigenvalues --    1.30611   1.33271   1.60505   1.60531   1.66824
  Beta virt. eigenvalues --    1.72139   1.83824   1.94497   1.97626   2.01573
  Beta virt. eigenvalues --    2.03209   2.11028   2.22665   2.26775   2.37954
  Beta virt. eigenvalues --    3.28941   3.34350   3.38676   3.40135   3.42220
  Beta virt. eigenvalues --    3.47493   3.48411   3.51688   3.59693   3.61080
  Beta virt. eigenvalues --    4.43738   4.46692   4.51173   4.59310   4.80294
  Beta virt. eigenvalues --    4.89966   4.93671   4.94174   4.96317   4.96613
  Beta virt. eigenvalues --    5.01172   5.02055   5.02569   5.05694   5.13845
  Beta virt. eigenvalues --    5.15774   5.28689   5.34214   5.42887   5.43639
  Beta virt. eigenvalues --    5.54150   5.58534   5.75097   5.87894   6.45296
  Beta virt. eigenvalues --    8.62013  14.19999  14.24307  14.26861  14.27515
  Beta virt. eigenvalues --   14.29527  14.31932  14.35788  14.35863  14.48025
  Beta virt. eigenvalues --   14.59338  17.23301  17.47430  17.72988  49.88157
  Beta virt. eigenvalues --   49.97019 189.57995
          Condensed to atoms (all electrons):
               1          2          3          4
     1  S   15.328358  -0.004020   0.131046   0.011637
     2  O   -0.004020   8.410143   0.004399   0.196896
     3  O    0.131046   0.004399   8.257614   0.002474
     4  H    0.011637   0.196896   0.002474   0.319021
          Atomic-Atomic Spin Densities.
               1          2          3          4
     1  S    0.938646  -0.110279  -0.192636   0.002389
     2  O   -0.110279   0.163656   0.020537  -0.001828
     3  O   -0.192636   0.020537   0.467116  -0.001650
     4  H    0.002389  -0.001828  -0.001650  -0.002487
 Mulliken charges and spin densities:
               1          2
     1  S    0.532979   0.638120
     2  O   -0.607418   0.072087
     3  O   -0.395533   0.293368
     4  H    0.469972  -0.003575
 Sum of Mulliken charges =  -0.00000   1.00000
 Mulliken charges and spin densities with hydrogens summed into heavy atoms:
               1          2
     1  S    0.532979   0.638120
     2  O   -0.137446   0.068512
     3  O   -0.395533   0.293368
 Electronic spatial extent (au):  <R**2>=            180.1811
 Charge=             -0.0000 electrons
 Dipole moment (field-independent basis, Debye):
    X=             -1.1128    Y=              0.0954    Z=              0.0245  Tot=              1.1172
 Quadrupole moment (field-independent basis, Debye-Ang):
   XX=            -27.2871   YY=            -20.9069   ZZ=            -24.0916
   XY=             -3.3330   XZ=             -0.0289   YZ=              0.0409
 Traceless Quadrupole moment (field-independent basis, Debye-Ang):
   XX=             -3.1919   YY=              3.1883   ZZ=              0.0036
   XY=             -3.3330   XZ=             -0.0289   YZ=              0.0409
 Octapole moment (field-independent basis, Debye-Ang**2):
  XXX=             -0.5677  YYY=              5.7230  ZZZ=             -0.0047  XYY=             -4.7804
  XXY=              0.5702  XXZ=              0.0324  XZZ=              0.2097  YZZ=              0.9911
  YYZ=              0.0509  XYZ=             -0.0470
 Hexadecapole moment (field-independent basis, Debye-Ang**3):
 XXXX=           -146.0925 YYYY=            -53.4158 ZZZZ=            -25.7749 XXXY=             -5.1199
 XXXZ=             -0.0399 YYYX=             -6.6907 YYYZ=              0.0738 ZZZX=             -0.0126
 ZZZY=              0.0243 XXYY=            -27.7617 XXZZ=            -28.0166 YYZZ=            -14.7964
 XXYZ=              0.0623 YYXZ=             -0.0587 ZZXY=             -0.1478
 N-N= 1.101945959580D+02 E-N=-1.524315087867D+03  KE= 5.482135373795D+02
                          Isotropic Fermi Contact Couplings
        Atom                 a.u.       MegaHertz       Gauss      10(-4) cm-1
     1  S(33)              0.05524      18.97452       6.77058       6.32922
     2  O(17)              0.01374      -8.32990      -2.97231      -2.77855
     3  O(17)              0.03491     -21.15953      -7.55025      -7.05806
     4  H(1)              -0.00210      -9.39641      -3.35287      -3.13431
 --------------------------------------------------------
       Center         ----  Spin Dipole Couplings  ----
                      3XX-RR        3YY-RR        3ZZ-RR
 --------------------------------------------------------
     1   Atom       -1.494699     -1.618452      3.113151
     2   Atom       -0.278042     -0.258033      0.536075
     3   Atom       -0.774394     -0.775081      1.549474
     4   Atom       -0.008958      0.020523     -0.011564
 --------------------------------------------------------
                        XY            XZ            YZ
 --------------------------------------------------------
     1   Atom       -0.001505      0.002831      0.009032
     2   Atom       -0.010629     -0.001273     -0.006486
     3   Atom        0.000257     -0.003779      0.001458
     4   Atom       -0.002539     -0.000043      0.000234
 --------------------------------------------------------


 ---------------------------------------------------------------------------------
              Anisotropic Spin Dipole Couplings in Principal Axis System
 ---------------------------------------------------------------------------------

       Atom             a.u.   MegaHertz   Gauss  10(-4) cm-1        Axes

              Baa    -1.6185   -66.357   -23.678   -22.134  0.0122  0.9999 -0.0019
     1 S(33)  Bbb    -1.4947   -61.281   -21.866   -20.441  0.9999 -0.0122 -0.0006
              Bcc     3.1132   127.637    45.544    42.575  0.0006  0.0019  1.0000
 
              Baa    -0.2827    20.452     7.298     6.822  0.9176  0.3974  0.0046
     2 O(17)  Bbb    -0.2535    18.342     6.545     6.118 -0.3974  0.9176  0.0069
              Bcc     0.5361   -38.794   -13.843   -12.940 -0.0015 -0.0081  1.0000
 
              Baa    -0.7752    56.091    20.015    18.710 -0.3199  0.9474 -0.0011
     3 O(17)  Bbb    -0.7743    56.029    19.992    18.689  0.9474  0.3199  0.0013
              Bcc     1.5495  -112.119   -40.007   -37.399 -0.0016  0.0006  1.0000
 
              Baa    -0.0116    -6.171    -2.202    -2.058  0.0101 -0.0065  0.9999
     4 H(1)   Bbb    -0.0092    -4.896    -1.747    -1.633  0.9963  0.0853 -0.0095
              Bcc     0.0207    11.067     3.949     3.691 -0.0852  0.9963  0.0073
 

 ---------------------------------------------------------------------------------

 1\1\GINC-QCEXNOD57\SP\UB3LYP\6-311+G(3df)\H1O2S1(2)\ROOT\16-Jul-2026\0
 \\#sp b3lyp/6-311+G(3df)\\single point of HOSO\\0,2\S,0,-0.14317,-0.48
 3675,0.005424\O,0,1.328478,0.256099,-0.015462\O,0,-1.187263,0.557268,-
 0.005893\H,0,1.154997,1.261861,-0.047935\\Version=ES64L-G16RevA.03\Sta
 te=2-A\HF=-549.2918038\S2=0.755216\S2-1=0.\S2A=0.750019\RMSD=2.258e-09
 \Dipole=0.4377511,0.037215,-0.0132258\Quadrupole=-2.372609,2.3671203,0
 .0054887,2.4777826,-0.0535988,-0.0920049\PG=C01 [X(H1O2S1)]\\@


 This summer one third of the nation will be ill-housed
 ill-nourished and ill-clad. Only they call it a vacation.
 -- Jonas Salk
 Job cpu time:       0 days  0 hours  0 minutes 16.8 seconds.
 Elapsed time:       0 days  0 hours  0 minutes  8.9 seconds.
 File lengths (MBytes):  RWF=     16 Int=      0 D2E=      0 Chk=      2 Scr=      1
 Normal termination of Gaussian 16 at Thu Jul 16 14:38:03 2026.
