 Entering Gaussian System, Link 0=g16
 Initial command:
 /soft/g16.a03/g16/l1.exe "/scr/macias/296019.qcexmaster.qcexval.uv.es_vib3_0.00/Gau-15350.inp" -scrdir="/scr/macias/296019.qcexmaster.qcexval.uv.es_vib3_0.00/"
 Entering Link 1 = /soft/g16.a03/g16/l1.exe PID=     15351.
  
 Copyright (c) 1988,1990,1992,1993,1995,1998,2003,2009,2016,
            Gaussian, Inc.  All Rights Reserved.
  
 This is part of the Gaussian(R) 16 program.  It is based on
 the Gaussian(R) 09 system (copyright 2009, Gaussian, Inc.),
 the Gaussian(R) 03 system (copyright 2003, Gaussian, Inc.),
 the Gaussian(R) 98 system (copyright 1998, Gaussian, Inc.),
 the Gaussian(R) 94 system (copyright 1995, Gaussian, Inc.),
 the Gaussian 92(TM) system (copyright 1992, Gaussian, Inc.),
 the Gaussian 90(TM) system (copyright 1990, Gaussian, Inc.),
 the Gaussian 88(TM) system (copyright 1988, Gaussian, Inc.),
 the Gaussian 86(TM) system (copyright 1986, Carnegie Mellon
 University), and the Gaussian 82(TM) system (copyright 1983,
 Carnegie Mellon University). Gaussian is a federally registered
 trademark of Gaussian, Inc.
  
 This software contains proprietary and confidential information,
 including trade secrets, belonging to Gaussian, Inc.
  
 This software is provided under written license and may be
 used, copied, transmitted, or stored only in accord with that
 written license.
  
 The following legend is applicable only to US Government
 contracts under FAR:
  
                    RESTRICTED RIGHTS LEGEND
  
 Use, reproduction and disclosure by the US Government is
 subject to restrictions as set forth in subparagraphs (a)
 and (c) of the Commercial Computer Software - Restricted
 Rights clause in FAR 52.227-19.
  
 Gaussian, Inc.
 340 Quinnipiac St., Bldg. 40, Wallingford CT 06492
  
  
 ---------------------------------------------------------------
 Warning -- This program may not be used in any manner that
 competes with the business of Gaussian, Inc. or will provide
 assistance to any competitor of Gaussian, Inc.  The licensee
 of this program is prohibited from giving any competitor of
 Gaussian, Inc. access to this program.  By using this program,
 the user acknowledges that Gaussian, Inc. is engaged in the
 business of creating and licensing software in the field of
 computational chemistry and represents and warrants to the
 licensee that it is not a competitor of Gaussian, Inc. and that
 it will not use this program in any manner prohibited above.
 ---------------------------------------------------------------
  

 Cite this work as:
 Gaussian 16, Revision A.03,
 M. J. Frisch, G. W. Trucks, H. B. Schlegel, G. E. Scuseria, 
 M. A. Robb, J. R. Cheeseman, G. Scalmani, V. Barone, 
 G. A. Petersson, H. Nakatsuji, X. Li, M. Caricato, A. V. Marenich, 
 J. Bloino, B. G. Janesko, R. Gomperts, B. Mennucci, H. P. Hratchian, 
 J. V. Ortiz, A. F. Izmaylov, J. L. Sonnenberg, D. Williams-Young, 
 F. Ding, F. Lipparini, F. Egidi, J. Goings, B. Peng, A. Petrone, 
 T. Henderson, D. Ranasinghe, V. G. Zakrzewski, J. Gao, N. Rega, 
 G. Zheng, W. Liang, M. Hada, M. Ehara, K. Toyota, R. Fukuda, 
 J. Hasegawa, M. Ishida, T. Nakajima, Y. Honda, O. Kitao, H. Nakai, 
 T. Vreven, K. Throssell, J. A. Montgomery, Jr., J. E. Peralta, 
 F. Ogliaro, M. J. Bearpark, J. J. Heyd, E. N. Brothers, K. N. Kudin, 
 V. N. Staroverov, T. A. Keith, R. Kobayashi, J. Normand, 
 K. Raghavachari, A. P. Rendell, J. C. Burant, S. S. Iyengar, 
 J. Tomasi, M. Cossi, J. M. Millam, M. Klene, C. Adamo, R. Cammi, 
 J. W. Ochterski, R. L. Martin, K. Morokuma, O. Farkas, 
 J. B. Foresman, and D. J. Fox, Gaussian, Inc., Wallingford CT, 2016.
 
 ******************************************
 Gaussian 16:  ES64L-G16RevA.03 25-Dec-2016
                16-Jul-2026 
 ******************************************
 %chk=opt_freq.chk
 %nproc=2
 Will use up to    2 processors via shared memory.
 %mem=2GB
 ----------------------
 #sp b3lyp/6-311+G(3df)
 ----------------------
 1/38=1,172=1/1;
 2/12=2,17=6,18=5,40=1/2;
 3/5=4,6=6,7=16,11=2,25=1,30=1,74=-5/1,2,3;
 4//1;
 5/5=2,38=5/2;
 6/7=2,8=2,9=2,10=2,28=1/1;
 99/5=1,9=1/99;
 --------------------
 single point of HOSO
 --------------------
 Symbolic Z-matrix:
 Charge =  0 Multiplicity = 2
 S                    -0.14317  -0.47768   0.01442 
 O                     1.32848   0.2561   -0.03946 
 O                    -1.19626   0.55127  -0.01789 
 H                     1.233     1.18386   0.22807 
 
                          Input orientation:                          
 ---------------------------------------------------------------------
 Center     Atomic      Atomic             Coordinates (Angstroms)
 Number     Number       Type             X           Y           Z
 ---------------------------------------------------------------------
      1         16           0       -0.143170   -0.477675    0.014424
      2          8           0        1.328478    0.256099   -0.039462
      3          8           0       -1.196263    0.551268   -0.017893
      4          1           0        1.232997    1.183861    0.228065
 ---------------------------------------------------------------------
                    Distance matrix (angstroms):
                    1          2          3          4
     1  S    0.000000
     2  O    1.645319   0.000000
     3  O    1.472675   2.542028   0.000000
     4  H    2.167990   0.970273   2.522295   0.000000
 Stoichiometry    HO2S(2)
 Framework group  C1[X(HO2S)]
 Deg. of freedom     6
 Full point group                 C1      NOp   1
 Largest Abelian subgroup         C1      NOp   1
 Largest concise Abelian subgroup C1      NOp   1
                         Standard orientation:                         
 ---------------------------------------------------------------------
 Center     Atomic      Atomic             Coordinates (Angstroms)
 Number     Number       Type             X           Y           Z
 ---------------------------------------------------------------------
      1         16           0       -0.143170   -0.477675    0.014424
      2          8           0        1.328478    0.256099   -0.039462
      3          8           0       -1.196263    0.551268   -0.017893
      4          1           0        1.232997    1.183861    0.228065
 ---------------------------------------------------------------------
 Rotational constants (GHZ):          34.5493918           9.4602410           7.4444951
 Standard basis: 6-311+G(3df) (5D, 7F)
 There are   146 symmetry adapted cartesian basis functions of A   symmetry.
 There are   128 symmetry adapted basis functions of A   symmetry.
   128 basis functions,   193 primitive gaussians,   146 cartesian basis functions
    17 alpha electrons       16 beta electrons
       nuclear repulsion energy       110.4322765427 Hartrees.
 NAtoms=    4 NActive=    4 NUniq=    4 SFac= 1.00D+00 NAtFMM=   60 NAOKFM=F Big=F
 Integral buffers will be    131072 words long.
 Raffenetti 2 integral format.
 Two-electron integral symmetry is turned on.
 One-electron integrals computed using PRISM.
 NBasis=   128 RedAO= T EigKep=  9.55D-04  NBF=   128
 NBsUse=   128 1.00D-06 EigRej= -1.00D+00 NBFU=   128
 ExpMin= 4.05D-02 ExpMax= 9.34D+04 ExpMxC= 3.17D+03 IAcc=3 IRadAn=         5 AccDes= 0.00D+00
 Harris functional with IExCor=  402 and IRadAn=       5 diagonalized for initial guess.
 HarFok:  IExCor=  402 AccDes= 0.00D+00 IRadAn=         5 IDoV= 1 UseB2=F ITyADJ=14
 ICtDFT=  3500011 ScaDFX=  1.000000  1.000000  1.000000  1.000000
 FoFCou: FMM=F IPFlag=           0 FMFlag=      100000 FMFlg1=           0
         NFxFlg=           0 DoJE=T BraDBF=F KetDBF=T FulRan=T
         wScrn=  0.000000 ICntrl=       500 IOpCl=  0 I1Cent=   200000004 NGrid=           0
         NMat0=    1 NMatS0=      1 NMatT0=    0 NMatD0=    1 NMtDS0=    0 NMtDT0=    0
 Petite list used in FoFCou.
 Initial guess <Sx>= 0.0000 <Sy>= 0.0000 <Sz>= 0.5000 <S**2>= 0.7500 S= 0.5000
 Keep R1 and R2 ints in memory in canonical form, NReq=70152760.
 Requested convergence on RMS density matrix=1.00D-08 within 128 cycles.
 Requested convergence on MAX density matrix=1.00D-06.
 Requested convergence on             energy=1.00D-06.
 No special actions if energy rises.
 SCF Done:  E(UB3LYP) =  -549.293853053     A.U. after   14 cycles
            NFock= 14  Conv=0.34D-08     -V/T= 2.0018
 <Sx>= 0.0000 <Sy>= 0.0000 <Sz>= 0.5000 <S**2>= 0.7552 S= 0.5026
 <L.S>= 0.000000000000E+00
 Annihilation of the first spin contaminant:
 S**2 before annihilation     0.7552,   after     0.7500

 **********************************************************************

            Population analysis using the SCF density.

 **********************************************************************

 Orbital symmetries:
 Alpha Orbitals:
       Occupied  (A) (A) (A) (A) (A) (A) (A) (A) (A) (A) (A) (A)
                 (A) (A) (A) (A) (A)
       Virtual   (A) (A) (A) (A) (A) (A) (A) (A) (A) (A) (A) (A)
                 (A) (A) (A) (A) (A) (A) (A) (A) (A) (A) (A) (A)
                 (A) (A) (A) (A) (A) (A) (A) (A) (A) (A) (A) (A)
                 (A) (A) (A) (A) (A) (A) (A) (A) (A) (A) (A) (A)
                 (A) (A) (A) (A) (A) (A) (A) (A) (A) (A) (A) (A)
                 (A) (A) (A) (A) (A) (A) (A) (A) (A) (A) (A) (A)
                 (A) (A) (A) (A) (A) (A) (A) (A) (A) (A) (A) (A)
                 (A) (A) (A) (A) (A) (A) (A) (A) (A) (A) (A) (A)
                 (A) (A) (A) (A) (A) (A) (A) (A) (A) (A) (A) (A)
                 (A) (A) (A)
 Beta  Orbitals:
       Occupied  (A) (A) (A) (A) (A) (A) (A) (A) (A) (A) (A) (A)
                 (A) (A) (A) (A)
       Virtual   (A) (A) (A) (A) (A) (A) (A) (A) (A) (A) (A) (A)
                 (A) (A) (A) (A) (A) (A) (A) (A) (A) (A) (A) (A)
                 (A) (A) (A) (A) (A) (A) (A) (A) (A) (A) (A) (A)
                 (A) (A) (A) (A) (A) (A) (A) (A) (A) (A) (A) (A)
                 (A) (A) (A) (A) (A) (A) (A) (A) (A) (A) (A) (A)
                 (A) (A) (A) (A) (A) (A) (A) (A) (A) (A) (A) (A)
                 (A) (A) (A) (A) (A) (A) (A) (A) (A) (A) (A) (A)
                 (A) (A) (A) (A) (A) (A) (A) (A) (A) (A) (A) (A)
                 (A) (A) (A) (A) (A) (A) (A) (A) (A) (A) (A) (A)
                 (A) (A) (A) (A)
 The electronic state is 2-A.
 Alpha  occ. eigenvalues --  -88.98444 -19.19423 -19.16419  -8.05747  -6.02137
 Alpha  occ. eigenvalues --   -6.01897  -6.01564  -1.11767  -1.04783  -0.70644
 Alpha  occ. eigenvalues --   -0.54455  -0.48263  -0.47475  -0.42267  -0.38673
 Alpha  occ. eigenvalues --   -0.34466  -0.23493
 Alpha virt. eigenvalues --   -0.02891  -0.00180   0.01525   0.03863   0.04727
 Alpha virt. eigenvalues --    0.07646   0.11696   0.14811   0.16492   0.17117
 Alpha virt. eigenvalues --    0.18528   0.20543   0.23005   0.24743   0.25332
 Alpha virt. eigenvalues --    0.28086   0.28669   0.29992   0.31020   0.32176
 Alpha virt. eigenvalues --    0.33139   0.42005   0.48385   0.59615   0.69998
 Alpha virt. eigenvalues --    0.72872   0.78719   0.79360   0.85497   0.87898
 Alpha virt. eigenvalues --    0.88481   0.88939   0.91352   0.93286   0.96514
 Alpha virt. eigenvalues --    1.00265   1.01075   1.03297   1.05003   1.07657
 Alpha virt. eigenvalues --    1.12288   1.18618   1.23538   1.29183   1.30581
 Alpha virt. eigenvalues --    1.33740   1.57172   1.58748   1.64878   1.71341
 Alpha virt. eigenvalues --    1.82872   1.92519   1.97249   1.99286   2.03164
 Alpha virt. eigenvalues --    2.10709   2.21944   2.25856   2.35136   3.28252
 Alpha virt. eigenvalues --    3.32676   3.36055   3.38735   3.40875   3.45812
 Alpha virt. eigenvalues --    3.47070   3.54416   3.60072   3.61483   4.42819
 Alpha virt. eigenvalues --    4.46348   4.50330   4.58630   4.79300   4.88726
 Alpha virt. eigenvalues --    4.92480   4.93901   4.94762   4.96345   4.97293
 Alpha virt. eigenvalues --    4.99733   5.01036   5.05383   5.12957   5.14285
 Alpha virt. eigenvalues --    5.30985   5.34707   5.41546   5.45915   5.55488
 Alpha virt. eigenvalues --    5.61160   5.73721   5.88329   6.44424   8.62305
 Alpha virt. eigenvalues --   14.18922  14.21869  14.23413  14.25880  14.27781
 Alpha virt. eigenvalues --   14.31861  14.33471  14.36102  14.48128  14.57656
 Alpha virt. eigenvalues --   17.21733  17.46418  17.73100  49.88118  49.96122
 Alpha virt. eigenvalues --  189.58336
  Beta  occ. eigenvalues --  -88.98052 -19.19133 -19.15412  -8.05389  -6.01926
  Beta  occ. eigenvalues --   -6.01381  -6.00636  -1.10677  -1.03398  -0.68583
  Beta  occ. eigenvalues --   -0.53318  -0.47553  -0.44097  -0.40557  -0.35252
  Beta  occ. eigenvalues --   -0.33427
  Beta virt. eigenvalues --   -0.11736  -0.02292   0.00237   0.02076   0.04364
  Beta virt. eigenvalues --    0.05114   0.07845   0.11910   0.15102   0.16886
  Beta virt. eigenvalues --    0.17375   0.19081   0.20831   0.23295   0.24818
  Beta virt. eigenvalues --    0.26541   0.28476   0.29297   0.31021   0.32548
  Beta virt. eigenvalues --    0.32829   0.33585   0.42691   0.48545   0.60051
  Beta virt. eigenvalues --    0.70580   0.73241   0.79573   0.80048   0.86423
  Beta virt. eigenvalues --    0.88268   0.89591   0.90327   0.92346   0.94197
  Beta virt. eigenvalues --    0.97402   1.01066   1.03141   1.03801   1.05290
  Beta virt. eigenvalues --    1.08341   1.13601   1.19034   1.24964   1.29916
  Beta virt. eigenvalues --    1.30953   1.34086   1.60476   1.60700   1.66470
  Beta virt. eigenvalues --    1.72953   1.83710   1.94079   1.98042   2.01750
  Beta virt. eigenvalues --    2.03256   2.11120   2.22414   2.26719   2.35621
  Beta virt. eigenvalues --    3.29244   3.34215   3.38508   3.39765   3.42263
  Beta virt. eigenvalues --    3.47458   3.48553   3.55107   3.61055   3.61886
  Beta virt. eigenvalues --    4.43598   4.46504   4.51366   4.59181   4.79932
  Beta virt. eigenvalues --    4.89455   4.93540   4.94576   4.95424   4.97407
  Beta virt. eigenvalues --    5.01332   5.01995   5.02840   5.06163   5.13915
  Beta virt. eigenvalues --    5.15679   5.31621   5.35238   5.42431   5.46735
  Beta virt. eigenvalues --    5.56432   5.61606   5.75540   5.88855   6.44842
  Beta virt. eigenvalues --    8.62799  14.20268  14.24243  14.26762  14.27473
  Beta virt. eigenvalues --   14.29862  14.33902  14.35485  14.37120  14.48553
  Beta virt. eigenvalues --   14.59401  17.23401  17.46706  17.73403  49.88433
  Beta virt. eigenvalues --   49.97093 189.58691
          Condensed to atoms (all electrons):
               1          2          3          4
     1  S   15.341077  -0.011631   0.131339   0.008912
     2  O   -0.011631   8.423631   0.004971   0.199211
     3  O    0.131339   0.004971   8.251631   0.000310
     4  H    0.008912   0.199211   0.000310   0.317438
          Atomic-Atomic Spin Densities.
               1          2          3          4
     1  S    0.927589  -0.100592  -0.190897  -0.001024
     2  O   -0.100592   0.149374   0.018481  -0.004133
     3  O   -0.190897   0.018481   0.474844  -0.000590
     4  H   -0.001024  -0.004133  -0.000590   0.005699
 Mulliken charges and spin densities:
               1          2
     1  S    0.530303   0.635077
     2  O   -0.616182   0.063131
     3  O   -0.388251   0.301839
     4  H    0.474130  -0.000047
 Sum of Mulliken charges =  -0.00000   1.00000
 Mulliken charges and spin densities with hydrogens summed into heavy atoms:
               1          2
     1  S    0.530303   0.635077
     2  O   -0.142052   0.063084
     3  O   -0.388251   0.301839
 Electronic spatial extent (au):  <R**2>=            180.3683
 Charge=             -0.0000 electrons
 Dipole moment (field-independent basis, Debye):
    X=              1.1958    Y=              0.0357    Z=              0.4674  Tot=              1.2844
 Quadrupole moment (field-independent basis, Debye-Ang):
   XX=            -26.9928   YY=            -21.2480   ZZ=            -23.8759
   XY=              3.3981   XZ=              0.6042   YZ=              0.7383
 Traceless Quadrupole moment (field-independent basis, Debye-Ang):
   XX=             -2.9539   YY=              2.7909   ZZ=              0.1630
   XY=              3.3981   XZ=              0.6042   YZ=              0.7383
 Octapole moment (field-independent basis, Debye-Ang**2):
  XXX=              1.2171  YYY=              5.0768  ZZZ=             -0.0305  XYY=              4.5808
  XXY=              1.0012  XXZ=              0.7475  XZZ=              0.0314  YZZ=              1.1698
  YYZ=              0.8664  XYZ=              0.8990
 Hexadecapole moment (field-independent basis, Debye-Ang**3):
 XXXX=           -146.2647 YYYY=            -53.2754 ZZZZ=            -25.8214 XXXY=              6.0947
 XXXZ=              1.0474 YYYX=              6.2857 YYYZ=              1.2213 ZZZX=              0.3188
 ZZZY=              0.5067 XXYY=            -27.6228 XXZZ=            -27.8827 YYZZ=            -14.3459
 XXYZ=              1.2576 YYXZ=              1.0716 ZZXY=              0.3883
 N-N= 1.104322765427D+02 E-N=-1.524818500548D+03  KE= 5.482949418030D+02
                          Isotropic Fermi Contact Couplings
        Atom                 a.u.       MegaHertz       Gauss      10(-4) cm-1
     1  S(33)              0.05513      18.93407       6.75615       6.31573
     2  O(17)              0.01691     -10.24872      -3.65700      -3.41861
     3  O(17)              0.03539     -21.45158      -7.65446      -7.15548
     4  H(1)               0.00003       0.15031       0.05364       0.05014
 --------------------------------------------------------
       Center         ----  Spin Dipole Couplings  ----
                      3XX-RR        3YY-RR        3ZZ-RR
 --------------------------------------------------------
     1   Atom       -1.485995     -1.606592      3.092588
     2   Atom       -0.251169     -0.220606      0.471775
     3   Atom       -0.788063     -0.793474      1.581537
     4   Atom       -0.009487      0.020519     -0.011032
 --------------------------------------------------------
                        XY            XZ            YZ
 --------------------------------------------------------
     1   Atom       -0.001616     -0.054518      0.155816
     2   Atom        0.009335      0.014001     -0.107905
     3   Atom        0.001021      0.072175      0.033235
     4   Atom        0.004496      0.001050      0.004434
 --------------------------------------------------------


 ---------------------------------------------------------------------------------
              Anisotropic Spin Dipole Couplings in Principal Axis System
 ---------------------------------------------------------------------------------

       Atom             a.u.   MegaHertz   Gauss  10(-4) cm-1        Axes

              Baa    -1.6118   -66.080   -23.579   -22.042 -0.0015  0.9995 -0.0331
     1 S(33)  Bbb    -1.4866   -60.951   -21.749   -20.331  0.9999  0.0019  0.0118
              Bcc     3.0984   127.031    45.328    42.373 -0.0119  0.0331  0.9994
 
              Baa    -0.2576    18.641     6.652     6.218  0.8759 -0.4746 -0.0870
     2 O(17)  Bbb    -0.2308    16.700     5.959     5.571  0.4822  0.8673  0.1236
              Bcc     0.4884   -35.341   -12.611   -11.789  0.0168 -0.1502  0.9885
 
              Baa    -0.7939    57.449    20.499    19.163 -0.0031  0.9999 -0.0139
     3 O(17)  Bbb    -0.7903    57.183    20.404    19.074  0.9995  0.0027 -0.0305
              Bcc     1.5842  -114.631   -40.903   -38.237  0.0304  0.0140  0.9994
 
              Baa    -0.0118    -6.272    -2.238    -2.092 -0.2536 -0.0969  0.9625
     4 H(1)   Bbb    -0.0101    -5.363    -1.914    -1.789  0.9563 -0.1747  0.2344
              Bcc     0.0218    11.635     4.152     3.881  0.1454  0.9799  0.1369
 

 ---------------------------------------------------------------------------------

 1\1\GINC-QCEXNOD57\SP\UB3LYP\6-311+G(3df)\H1O2S1(2)\ROOT\16-Jul-2026\0
 \\#sp b3lyp/6-311+G(3df)\\single point of HOSO\\0,2\S,0,-0.14317,-0.47
 7675,0.014424\O,0,1.328478,0.256099,-0.039462\O,0,-1.196263,0.551268,-
 0.017893\H,0,1.232997,1.183861,0.228065\\Version=ES64L-G16RevA.03\Stat
 e=2-A\HF=-549.2938531\S2=0.755247\S2-1=0.\S2A=0.750019\RMSD=3.378e-09\
 Dipole=0.4704612,0.0140314,0.1838773\Quadrupole=-2.1961641,2.0749845,0
 .1211795,2.5264345,0.4491784,0.5489449\PG=C01 [X(H1O2S1)]\\@


 THE SCIENTIFIC THEORIST IS NOT TO BE ENVIED. FOR NATURE, OR MORE
 PRECISELY EXPERIMENT, IS AN INEXORABLE AND NOT VERY FRIENDLY JUDGE OF HIS
 WORK.  IT NEVER SAYS "YES" TO A THEORY. IN THE MOST FAVORABLE CASES
 IT SAYS "MAYBE", AND IN THE GREAT MAJORITY OF CASES SIMPLY "NO"...
 PROBABLY EVERY THEORY WILL SOME DAY EXPERIENCE ITS "NO" - MOST
 THEORIES, SOON AFTER CONCEPTION.  -- A.EINSTEIN, NOV 11, 1922.
 Job cpu time:       0 days  0 hours  0 minutes 16.6 seconds.
 Elapsed time:       0 days  0 hours  0 minutes  8.6 seconds.
 File lengths (MBytes):  RWF=     16 Int=      0 D2E=      0 Chk=      2 Scr=      1
 Normal termination of Gaussian 16 at Thu Jul 16 14:38:13 2026.
