 Entering Gaussian System, Link 0=g16
 Initial command:
 /soft/g16.a03/g16/l1.exe "/scr/macias/296047.qcexmaster.qcexval.uv.es_vib6_0.10/Gau-16739.inp" -scrdir="/scr/macias/296047.qcexmaster.qcexval.uv.es_vib6_0.10/"
 Entering Link 1 = /soft/g16.a03/g16/l1.exe PID=     16740.
  
 Copyright (c) 1988,1990,1992,1993,1995,1998,2003,2009,2016,
            Gaussian, Inc.  All Rights Reserved.
  
 This is part of the Gaussian(R) 16 program.  It is based on
 the Gaussian(R) 09 system (copyright 2009, Gaussian, Inc.),
 the Gaussian(R) 03 system (copyright 2003, Gaussian, Inc.),
 the Gaussian(R) 98 system (copyright 1998, Gaussian, Inc.),
 the Gaussian(R) 94 system (copyright 1995, Gaussian, Inc.),
 the Gaussian 92(TM) system (copyright 1992, Gaussian, Inc.),
 the Gaussian 90(TM) system (copyright 1990, Gaussian, Inc.),
 the Gaussian 88(TM) system (copyright 1988, Gaussian, Inc.),
 the Gaussian 86(TM) system (copyright 1986, Carnegie Mellon
 University), and the Gaussian 82(TM) system (copyright 1983,
 Carnegie Mellon University). Gaussian is a federally registered
 trademark of Gaussian, Inc.
  
 This software contains proprietary and confidential information,
 including trade secrets, belonging to Gaussian, Inc.
  
 This software is provided under written license and may be
 used, copied, transmitted, or stored only in accord with that
 written license.
  
 The following legend is applicable only to US Government
 contracts under FAR:
  
                    RESTRICTED RIGHTS LEGEND
  
 Use, reproduction and disclosure by the US Government is
 subject to restrictions as set forth in subparagraphs (a)
 and (c) of the Commercial Computer Software - Restricted
 Rights clause in FAR 52.227-19.
  
 Gaussian, Inc.
 340 Quinnipiac St., Bldg. 40, Wallingford CT 06492
  
  
 ---------------------------------------------------------------
 Warning -- This program may not be used in any manner that
 competes with the business of Gaussian, Inc. or will provide
 assistance to any competitor of Gaussian, Inc.  The licensee
 of this program is prohibited from giving any competitor of
 Gaussian, Inc. access to this program.  By using this program,
 the user acknowledges that Gaussian, Inc. is engaged in the
 business of creating and licensing software in the field of
 computational chemistry and represents and warrants to the
 licensee that it is not a competitor of Gaussian, Inc. and that
 it will not use this program in any manner prohibited above.
 ---------------------------------------------------------------
  

 Cite this work as:
 Gaussian 16, Revision A.03,
 M. J. Frisch, G. W. Trucks, H. B. Schlegel, G. E. Scuseria, 
 M. A. Robb, J. R. Cheeseman, G. Scalmani, V. Barone, 
 G. A. Petersson, H. Nakatsuji, X. Li, M. Caricato, A. V. Marenich, 
 J. Bloino, B. G. Janesko, R. Gomperts, B. Mennucci, H. P. Hratchian, 
 J. V. Ortiz, A. F. Izmaylov, J. L. Sonnenberg, D. Williams-Young, 
 F. Ding, F. Lipparini, F. Egidi, J. Goings, B. Peng, A. Petrone, 
 T. Henderson, D. Ranasinghe, V. G. Zakrzewski, J. Gao, N. Rega, 
 G. Zheng, W. Liang, M. Hada, M. Ehara, K. Toyota, R. Fukuda, 
 J. Hasegawa, M. Ishida, T. Nakajima, Y. Honda, O. Kitao, H. Nakai, 
 T. Vreven, K. Throssell, J. A. Montgomery, Jr., J. E. Peralta, 
 F. Ogliaro, M. J. Bearpark, J. J. Heyd, E. N. Brothers, K. N. Kudin, 
 V. N. Staroverov, T. A. Keith, R. Kobayashi, J. Normand, 
 K. Raghavachari, A. P. Rendell, J. C. Burant, S. S. Iyengar, 
 J. Tomasi, M. Cossi, J. M. Millam, M. Klene, C. Adamo, R. Cammi, 
 J. W. Ochterski, R. L. Martin, K. Morokuma, O. Farkas, 
 J. B. Foresman, and D. J. Fox, Gaussian, Inc., Wallingford CT, 2016.
 
 ******************************************
 Gaussian 16:  ES64L-G16RevA.03 25-Dec-2016
                16-Jul-2026 
 ******************************************
 %chk=opt_freq.chk
 %nproc=2
 Will use up to    2 processors via shared memory.
 %mem=2GB
 ----------------------
 #sp b3lyp/6-311+G(3df)
 ----------------------
 1/38=1,172=1/1;
 2/12=2,17=6,18=5,40=1/2;
 3/5=4,6=6,7=16,11=2,25=1,30=1,74=-5/1,2,3;
 4//1;
 5/5=2,38=5/2;
 6/7=2,8=2,9=2,10=2,28=1/1;
 99/5=1,9=1/99;
 --------------------
 single point of HOSO
 --------------------
 Symbolic Z-matrix:
 Charge =  0 Multiplicity = 2
 S                    -0.14317  -0.47768   0.01442 
 O                     1.32848   0.2621   -0.03746 
 O                    -1.19626   0.55127  -0.01789 
 H                     1.241     1.08786   0.20107 
 
                          Input orientation:                          
 ---------------------------------------------------------------------
 Center     Atomic      Atomic             Coordinates (Angstroms)
 Number     Number       Type             X           Y           Z
 ---------------------------------------------------------------------
      1         16           0       -0.143170   -0.477675    0.014424
      2          8           0        1.328478    0.262099   -0.037462
      3          8           0       -1.196263    0.551268   -0.017893
      4          1           0        1.240997    1.087861    0.201065
 ---------------------------------------------------------------------
                    Distance matrix (angstroms):
                    1          2          3          4
     1  S    0.000000
     2  O    1.647940   0.000000
     3  O    1.472675   2.541322   0.000000
     4  H    2.098012   0.863962   2.505217   0.000000
 Stoichiometry    HO2S(2)
 Framework group  C1[X(HO2S)]
 Deg. of freedom     6
 Full point group                 C1      NOp   1
 Largest Abelian subgroup         C1      NOp   1
 Largest concise Abelian subgroup C1      NOp   1
                         Standard orientation:                         
 ---------------------------------------------------------------------
 Center     Atomic      Atomic             Coordinates (Angstroms)
 Number     Number       Type             X           Y           Z
 ---------------------------------------------------------------------
      1         16           0       -0.142304   -0.476638    0.011693
      2          8           0        1.327630    0.266884   -0.034944
      3          8           0       -1.197788    0.550027   -0.014536
      4          1           0        1.238129    1.090916    0.208760
 ---------------------------------------------------------------------
 Rotational constants (GHZ):          34.9859238           9.4597895           7.4607521
 Standard basis: 6-311+G(3df) (5D, 7F)
 There are   146 symmetry adapted cartesian basis functions of A   symmetry.
 There are   128 symmetry adapted basis functions of A   symmetry.
   128 basis functions,   193 primitive gaussians,   146 cartesian basis functions
    17 alpha electrons       16 beta electrons
       nuclear repulsion energy       111.0490998864 Hartrees.
 NAtoms=    4 NActive=    4 NUniq=    4 SFac= 1.00D+00 NAtFMM=   60 NAOKFM=F Big=F
 Integral buffers will be    131072 words long.
 Raffenetti 2 integral format.
 Two-electron integral symmetry is turned on.
 One-electron integrals computed using PRISM.
 NBasis=   128 RedAO= T EigKep=  9.56D-04  NBF=   128
 NBsUse=   128 1.00D-06 EigRej= -1.00D+00 NBFU=   128
 ExpMin= 4.05D-02 ExpMax= 9.34D+04 ExpMxC= 3.17D+03 IAcc=3 IRadAn=         5 AccDes= 0.00D+00
 Harris functional with IExCor=  402 and IRadAn=       5 diagonalized for initial guess.
 HarFok:  IExCor=  402 AccDes= 0.00D+00 IRadAn=         5 IDoV= 1 UseB2=F ITyADJ=14
 ICtDFT=  3500011 ScaDFX=  1.000000  1.000000  1.000000  1.000000
 FoFCou: FMM=F IPFlag=           0 FMFlag=      100000 FMFlg1=           0
         NFxFlg=           0 DoJE=T BraDBF=F KetDBF=T FulRan=T
         wScrn=  0.000000 ICntrl=       500 IOpCl=  0 I1Cent=   200000004 NGrid=           0
         NMat0=    1 NMatS0=      1 NMatT0=    0 NMatD0=    1 NMtDS0=    0 NMtDT0=    0
 Petite list used in FoFCou.
 Initial guess <Sx>= 0.0000 <Sy>= 0.0000 <Sz>= 0.5000 <S**2>= 0.7500 S= 0.5000
 Keep R1 and R2 ints in memory in canonical form, NReq=70152802.
 Requested convergence on RMS density matrix=1.00D-08 within 128 cycles.
 Requested convergence on MAX density matrix=1.00D-06.
 Requested convergence on             energy=1.00D-06.
 No special actions if energy rises.
 SCF Done:  E(UB3LYP) =  -549.280788572     A.U. after   14 cycles
            NFock= 14  Conv=0.29D-08     -V/T= 2.0014
 <Sx>= 0.0000 <Sy>= 0.0000 <Sz>= 0.5000 <S**2>= 0.7553 S= 0.5026
 <L.S>= 0.000000000000E+00
 Annihilation of the first spin contaminant:
 S**2 before annihilation     0.7553,   after     0.7500

 **********************************************************************

            Population analysis using the SCF density.

 **********************************************************************

 Orbital symmetries:
 Alpha Orbitals:
       Occupied  (A) (A) (A) (A) (A) (A) (A) (A) (A) (A) (A) (A)
                 (A) (A) (A) (A) (A)
       Virtual   (A) (A) (A) (A) (A) (A) (A) (A) (A) (A) (A) (A)
                 (A) (A) (A) (A) (A) (A) (A) (A) (A) (A) (A) (A)
                 (A) (A) (A) (A) (A) (A) (A) (A) (A) (A) (A) (A)
                 (A) (A) (A) (A) (A) (A) (A) (A) (A) (A) (A) (A)
                 (A) (A) (A) (A) (A) (A) (A) (A) (A) (A) (A) (A)
                 (A) (A) (A) (A) (A) (A) (A) (A) (A) (A) (A) (A)
                 (A) (A) (A) (A) (A) (A) (A) (A) (A) (A) (A) (A)
                 (A) (A) (A) (A) (A) (A) (A) (A) (A) (A) (A) (A)
                 (A) (A) (A) (A) (A) (A) (A) (A) (A) (A) (A) (A)
                 (A) (A) (A)
 Beta  Orbitals:
       Occupied  (A) (A) (A) (A) (A) (A) (A) (A) (A) (A) (A) (A)
                 (A) (A) (A) (A)
       Virtual   (A) (A) (A) (A) (A) (A) (A) (A) (A) (A) (A) (A)
                 (A) (A) (A) (A) (A) (A) (A) (A) (A) (A) (A) (A)
                 (A) (A) (A) (A) (A) (A) (A) (A) (A) (A) (A) (A)
                 (A) (A) (A) (A) (A) (A) (A) (A) (A) (A) (A) (A)
                 (A) (A) (A) (A) (A) (A) (A) (A) (A) (A) (A) (A)
                 (A) (A) (A) (A) (A) (A) (A) (A) (A) (A) (A) (A)
                 (A) (A) (A) (A) (A) (A) (A) (A) (A) (A) (A) (A)
                 (A) (A) (A) (A) (A) (A) (A) (A) (A) (A) (A) (A)
                 (A) (A) (A) (A) (A) (A) (A) (A) (A) (A) (A) (A)
                 (A) (A) (A) (A)
 The electronic state is 2-A.
 Alpha  occ. eigenvalues --  -88.98658 -19.18557 -19.16635  -8.05960  -6.02355
 Alpha  occ. eigenvalues --   -6.02106  -6.01774  -1.13217  -1.06005  -0.72120
 Alpha  occ. eigenvalues --   -0.55397  -0.48493  -0.47707  -0.42626  -0.39003
 Alpha  occ. eigenvalues --   -0.34692  -0.23747
 Alpha virt. eigenvalues --   -0.02519  -0.00407   0.01570   0.04344   0.05028
 Alpha virt. eigenvalues --    0.07834   0.12499   0.15284   0.16495   0.17089
 Alpha virt. eigenvalues --    0.18434   0.20804   0.23097   0.24740   0.25220
 Alpha virt. eigenvalues --    0.28063   0.28569   0.29948   0.30978   0.32089
 Alpha virt. eigenvalues --    0.33215   0.41851   0.55775   0.59673   0.69852
 Alpha virt. eigenvalues --    0.72724   0.78509   0.79128   0.85476   0.87582
 Alpha virt. eigenvalues --    0.88177   0.88750   0.91004   0.93413   0.96384
 Alpha virt. eigenvalues --    1.00214   1.00991   1.03403   1.04768   1.07305
 Alpha virt. eigenvalues --    1.11896   1.17785   1.23334   1.28914   1.30561
 Alpha virt. eigenvalues --    1.34985   1.57025   1.58586   1.64765   1.71653
 Alpha virt. eigenvalues --    1.83105   1.92310   1.96700   1.99121   2.02855
 Alpha virt. eigenvalues --    2.11160   2.21988   2.25674   2.36463   3.26933
 Alpha virt. eigenvalues --    3.32096   3.35702   3.38229   3.40536   3.45527
 Alpha virt. eigenvalues --    3.46491   3.56273   3.59860   3.74272   4.42503
 Alpha virt. eigenvalues --    4.45913   4.50153   4.57841   4.79054   4.86340
 Alpha virt. eigenvalues --    4.92101   4.93067   4.93903   4.96422   4.97081
 Alpha virt. eigenvalues --    4.99527   5.01087   5.04677   5.12698   5.13887
 Alpha virt. eigenvalues --    5.31204   5.34677   5.40860   5.48295   5.55867
 Alpha virt. eigenvalues --    5.72967   5.79833   5.99372   6.44329   8.61908
 Alpha virt. eigenvalues --   14.18707  14.21682  14.23213  14.25957  14.27849
 Alpha virt. eigenvalues --   14.31815  14.34194  14.41359  14.52901  14.57475
 Alpha virt. eigenvalues --   17.21524  17.46246  17.72817  49.89128  49.95933
 Alpha virt. eigenvalues --  189.57968
  Beta  occ. eigenvalues --  -88.98266 -19.18278 -19.15616  -8.05602  -6.02145
  Beta  occ. eigenvalues --   -6.01591  -6.00845  -1.12309  -1.04460  -0.70182
  Beta  occ. eigenvalues --   -0.54142  -0.47789  -0.44359  -0.40892  -0.35569
  Beta  occ. eigenvalues --   -0.33638
  Beta virt. eigenvalues --   -0.11942  -0.01784   0.00041   0.02004   0.04626
  Beta virt. eigenvalues --    0.05549   0.08154   0.12638   0.15572   0.16891
  Beta virt. eigenvalues --    0.17371   0.18999   0.21038   0.23390   0.24829
  Beta virt. eigenvalues --    0.26423   0.28446   0.29257   0.30918   0.32484
  Beta virt. eigenvalues --    0.32666   0.33735   0.42555   0.55951   0.60096
  Beta virt. eigenvalues --    0.70428   0.73095   0.79237   0.79917   0.86408
  Beta virt. eigenvalues --    0.87992   0.89389   0.90134   0.91779   0.94465
  Beta virt. eigenvalues --    0.97261   1.00939   1.03139   1.03895   1.05026
  Beta virt. eigenvalues --    1.07948   1.13207   1.18235   1.24772   1.29623
  Beta virt. eigenvalues --    1.30956   1.35344   1.60278   1.60569   1.66363
  Beta virt. eigenvalues --    1.73261   1.83957   1.93888   1.97503   2.01578
  Beta virt. eigenvalues --    2.02912   2.11606   2.22463   2.26545   2.36940
  Beta virt. eigenvalues --    3.27857   3.33549   3.38177   3.39309   3.41948
  Beta virt. eigenvalues --    3.46749   3.48490   3.56878   3.61013   3.74537
  Beta virt. eigenvalues --    4.43278   4.46056   4.51193   4.58396   4.79684
  Beta virt. eigenvalues --    4.86967   4.93037   4.93821   4.94539   4.97662
  Beta virt. eigenvalues --    5.01185   5.01811   5.02799   5.05515   5.13628
  Beta virt. eigenvalues --    5.15310   5.31779   5.35241   5.41748   5.49083
  Beta virt. eigenvalues --    5.57041   5.74799   5.80271   5.99700   6.44739
  Beta virt. eigenvalues --    8.62403  14.20018  14.24084  14.26752  14.27404
  Beta virt. eigenvalues --   14.29810  14.34657  14.35645  14.42452  14.53093
  Beta virt. eigenvalues --   14.59244  17.23192  17.46534  17.73120  49.89441
  Beta virt. eigenvalues --   49.96907 189.58323
          Condensed to atoms (all electrons):
               1          2          3          4
     1  S   15.345105  -0.021267   0.131287   0.010381
     2  O   -0.021267   8.442156   0.004427   0.209486
     3  O    0.131287   0.004427   8.247072  -0.000597
     4  H    0.010381   0.209486  -0.000597   0.298232
          Atomic-Atomic Spin Densities.
               1          2          3          4
     1  S    0.924033  -0.098860  -0.190665   0.000139
     2  O   -0.098860   0.145628   0.018227  -0.004820
     3  O   -0.190665   0.018227   0.478940  -0.000785
     4  H    0.000139  -0.004820  -0.000785   0.004925
 Mulliken charges and spin densities:
               1          2
     1  S    0.534494   0.634648
     2  O   -0.634803   0.060175
     3  O   -0.382189   0.305718
     4  H    0.482498  -0.000541
 Sum of Mulliken charges =  -0.00000   1.00000
 Mulliken charges and spin densities with hydrogens summed into heavy atoms:
               1          2
     1  S    0.534494   0.634648
     2  O   -0.152305   0.059634
     3  O   -0.382189   0.305718
 Electronic spatial extent (au):  <R**2>=            179.7366
 Charge=              0.0000 electrons
 Dipole moment (field-independent basis, Debye):
    X=              1.1285    Y=             -0.1119    Z=              0.4330  Tot=              1.2139
 Quadrupole moment (field-independent basis, Debye-Ang):
   XX=            -26.9132   YY=            -21.4930   ZZ=            -23.7559
   XY=              3.1986   XZ=              0.5839   YZ=              0.6613
 Traceless Quadrupole moment (field-independent basis, Debye-Ang):
   XX=             -2.8592   YY=              2.5610   ZZ=              0.2981
   XY=              3.1986   XZ=              0.5839   YZ=              0.6613
 Octapole moment (field-independent basis, Debye-Ang**2):
  XXX=              1.3885  YYY=              4.5173  ZZZ=              0.0124  XYY=              4.1858
  XXY=              0.8556  XXZ=              0.7285  XZZ=              0.1260  YZZ=              1.2064
  YYZ=              0.7271  XYZ=              0.8112
 Hexadecapole moment (field-independent basis, Debye-Ang**3):
 XXXX=           -145.3056 YYYY=            -53.2066 ZZZZ=            -25.5346 XXXY=              6.0306
 XXXZ=              1.0943 YYYX=              5.5992 YYYZ=              1.0008 ZZZX=              0.3525
 ZZZY=              0.5054 XXYY=            -27.7862 XXZZ=            -27.6466 YYZZ=            -14.1210
 XXYZ=              1.1597 YYXZ=              0.9106 ZZXY=              0.4331
 N-N= 1.110490998864D+02 E-N=-1.526080222994D+03  KE= 5.485193885679D+02
                          Isotropic Fermi Contact Couplings
        Atom                 a.u.       MegaHertz       Gauss      10(-4) cm-1
     1  S(33)              0.05451      18.72366       6.68107       6.24554
     2  O(17)              0.01534      -9.29620      -3.31712      -3.10088
     3  O(17)              0.03567     -21.62490      -7.71630      -7.21329
     4  H(1)              -0.00017      -0.76208      -0.27193      -0.25420
 --------------------------------------------------------
       Center         ----  Spin Dipole Couplings  ----
                      3XX-RR        3YY-RR        3ZZ-RR
 --------------------------------------------------------
     1   Atom       -1.485527     -1.609552      3.095080
     2   Atom       -0.242571     -0.216146      0.458717
     3   Atom       -0.796201     -0.803274      1.599476
     4   Atom       -0.012976      0.023823     -0.010847
 --------------------------------------------------------
                        XY            XZ            YZ
 --------------------------------------------------------
     1   Atom       -0.001760     -0.053458      0.130776
     2   Atom        0.008838      0.010649     -0.098192
     3   Atom        0.000980      0.075828      0.030555
     4   Atom        0.003773      0.001167      0.004192
 --------------------------------------------------------


 ---------------------------------------------------------------------------------
              Anisotropic Spin Dipole Couplings in Principal Axis System
 ---------------------------------------------------------------------------------

       Atom             a.u.   MegaHertz   Gauss  10(-4) cm-1        Axes

              Baa    -1.6132   -66.139   -23.600   -22.062  0.0022  0.9996 -0.0277
     1 S(33)  Bbb    -1.4862   -60.931   -21.742   -20.324  0.9999 -0.0018  0.0117
              Bcc     3.0993   127.070    45.342    42.386 -0.0117  0.0278  0.9995
 
              Baa    -0.2484    17.977     6.415     5.996  0.8723 -0.4824 -0.0801
     2 O(17)  Bbb    -0.2244    16.237     5.794     5.416  0.4888  0.8646  0.1167
              Bcc     0.4728   -34.214   -12.208   -11.413  0.0130 -0.1409  0.9899
 
              Baa    -0.8037    58.152    20.750    19.398 -0.0030  0.9999 -0.0126
     3 O(17)  Bbb    -0.7986    57.786    20.620    19.275  0.9995  0.0026 -0.0316
              Bcc     1.6023  -115.939   -41.370   -38.673  0.0316  0.0127  0.9994
 
              Baa    -0.0136    -7.256    -2.589    -2.420  0.9489 -0.0610 -0.3096
     4 H(1)   Bbb    -0.0111    -5.935    -2.118    -1.980  0.2984 -0.1454  0.9433
              Bcc     0.0247    13.191     4.707     4.400  0.1025  0.9875  0.1197
 

 ---------------------------------------------------------------------------------

 1\1\GINC-QCEXNOD57\SP\UB3LYP\6-311+G(3df)\H1O2S1(2)\ROOT\16-Jul-2026\0
 \\#sp b3lyp/6-311+G(3df)\\single point of HOSO\\0,2\S,0,-0.14317,-0.47
 7675,0.014424\O,0,1.328478,0.262099,-0.037462\O,0,-1.196263,0.551268,-
 0.017893\H,0,1.240997,1.087861,0.201065\\Version=ES64L-G16RevA.03\Stat
 e=2-A\HF=-549.2807886\S2=0.755269\S2-1=0.\S2A=0.750019\RMSD=2.918e-09\
 Dipole=0.4439516,-0.0440022,0.1704751\Quadrupole=-2.1142488,1.8990497,
 0.215199,2.3903792,0.4210656,0.4791016\PG=C01 [X(H1O2S1)]\\@


 I LOVE THOSE WHO LONG FOR THE IMPOSSIBLE.

                                 -- GOETHE
 Job cpu time:       0 days  0 hours  0 minutes 15.3 seconds.
 Elapsed time:       0 days  0 hours  0 minutes  7.9 seconds.
 File lengths (MBytes):  RWF=     16 Int=      0 D2E=      0 Chk=      2 Scr=      1
 Normal termination of Gaussian 16 at Thu Jul 16 14:38:39 2026.
