 Entering Gaussian System, Link 0=g16
 Initial command:
 /soft/g16.a03/g16/l1.exe "/scr/macias/296009.qcexmaster.qcexval.uv.es_vib2_-0.40/Gau-14936.inp" -scrdir="/scr/macias/296009.qcexmaster.qcexval.uv.es_vib2_-0.40/"
 Entering Link 1 = /soft/g16.a03/g16/l1.exe PID=     14940.
  
 Copyright (c) 1988,1990,1992,1993,1995,1998,2003,2009,2016,
            Gaussian, Inc.  All Rights Reserved.
  
 This is part of the Gaussian(R) 16 program.  It is based on
 the Gaussian(R) 09 system (copyright 2009, Gaussian, Inc.),
 the Gaussian(R) 03 system (copyright 2003, Gaussian, Inc.),
 the Gaussian(R) 98 system (copyright 1998, Gaussian, Inc.),
 the Gaussian(R) 94 system (copyright 1995, Gaussian, Inc.),
 the Gaussian 92(TM) system (copyright 1992, Gaussian, Inc.),
 the Gaussian 90(TM) system (copyright 1990, Gaussian, Inc.),
 the Gaussian 88(TM) system (copyright 1988, Gaussian, Inc.),
 the Gaussian 86(TM) system (copyright 1986, Carnegie Mellon
 University), and the Gaussian 82(TM) system (copyright 1983,
 Carnegie Mellon University). Gaussian is a federally registered
 trademark of Gaussian, Inc.
  
 This software contains proprietary and confidential information,
 including trade secrets, belonging to Gaussian, Inc.
  
 This software is provided under written license and may be
 used, copied, transmitted, or stored only in accord with that
 written license.
  
 The following legend is applicable only to US Government
 contracts under FAR:
  
                    RESTRICTED RIGHTS LEGEND
  
 Use, reproduction and disclosure by the US Government is
 subject to restrictions as set forth in subparagraphs (a)
 and (c) of the Commercial Computer Software - Restricted
 Rights clause in FAR 52.227-19.
  
 Gaussian, Inc.
 340 Quinnipiac St., Bldg. 40, Wallingford CT 06492
  
  
 ---------------------------------------------------------------
 Warning -- This program may not be used in any manner that
 competes with the business of Gaussian, Inc. or will provide
 assistance to any competitor of Gaussian, Inc.  The licensee
 of this program is prohibited from giving any competitor of
 Gaussian, Inc. access to this program.  By using this program,
 the user acknowledges that Gaussian, Inc. is engaged in the
 business of creating and licensing software in the field of
 computational chemistry and represents and warrants to the
 licensee that it is not a competitor of Gaussian, Inc. and that
 it will not use this program in any manner prohibited above.
 ---------------------------------------------------------------
  

 Cite this work as:
 Gaussian 16, Revision A.03,
 M. J. Frisch, G. W. Trucks, H. B. Schlegel, G. E. Scuseria, 
 M. A. Robb, J. R. Cheeseman, G. Scalmani, V. Barone, 
 G. A. Petersson, H. Nakatsuji, X. Li, M. Caricato, A. V. Marenich, 
 J. Bloino, B. G. Janesko, R. Gomperts, B. Mennucci, H. P. Hratchian, 
 J. V. Ortiz, A. F. Izmaylov, J. L. Sonnenberg, D. Williams-Young, 
 F. Ding, F. Lipparini, F. Egidi, J. Goings, B. Peng, A. Petrone, 
 T. Henderson, D. Ranasinghe, V. G. Zakrzewski, J. Gao, N. Rega, 
 G. Zheng, W. Liang, M. Hada, M. Ehara, K. Toyota, R. Fukuda, 
 J. Hasegawa, M. Ishida, T. Nakajima, Y. Honda, O. Kitao, H. Nakai, 
 T. Vreven, K. Throssell, J. A. Montgomery, Jr., J. E. Peralta, 
 F. Ogliaro, M. J. Bearpark, J. J. Heyd, E. N. Brothers, K. N. Kudin, 
 V. N. Staroverov, T. A. Keith, R. Kobayashi, J. Normand, 
 K. Raghavachari, A. P. Rendell, J. C. Burant, S. S. Iyengar, 
 J. Tomasi, M. Cossi, J. M. Millam, M. Klene, C. Adamo, R. Cammi, 
 J. W. Ochterski, R. L. Martin, K. Morokuma, O. Farkas, 
 J. B. Foresman, and D. J. Fox, Gaussian, Inc., Wallingford CT, 2016.
 
 ******************************************
 Gaussian 16:  ES64L-G16RevA.03 25-Dec-2016
                16-Jul-2026 
 ******************************************
 %chk=opt_freq.chk
 %nproc=2
 Will use up to    2 processors via shared memory.
 %mem=2GB
 ----------------------
 #sp b3lyp/6-311+G(3df)
 ----------------------
 1/38=1,172=1/1;
 2/12=2,17=6,18=5,40=1/2;
 3/5=4,6=6,7=16,11=2,25=1,30=1,74=-5/1,2,3;
 4//1;
 5/5=2,38=5/2;
 6/7=2,8=2,9=2,10=2,28=1/1;
 99/5=1,9=1/99;
 --------------------
 single point of HOSO
 --------------------
 Symbolic Z-matrix:
 Charge =  0 Multiplicity = 2
 S                    -0.14717  -0.54968   0.02242 
 O                     1.21648   0.3281   -0.05946 
 O                    -1.06026   0.62327  -0.02589 
 H                     0.945     1.18386   0.39607 
 
                          Input orientation:                          
 ---------------------------------------------------------------------
 Center     Atomic      Atomic             Coordinates (Angstroms)
 Number     Number       Type             X           Y           Z
 ---------------------------------------------------------------------
      1         16           0       -0.147170   -0.549675    0.022424
      2          8           0        1.216478    0.328099   -0.059462
      3          8           0       -1.060263    0.623268   -0.025893
      4          1           0        0.944997    1.183861    0.396065
 ---------------------------------------------------------------------
                    Distance matrix (angstroms):
                    1          2          3          4
     1  S    0.000000
     2  O    1.623801   0.000000
     3  O    1.487235   2.296040   0.000000
     4  H    2.082687   1.006745   2.124472   0.000000
 Stoichiometry    HO2S(2)
 Framework group  C1[X(HO2S)]
 Deg. of freedom     6
 Full point group                 C1      NOp   1
 Largest Abelian subgroup         C1      NOp   1
 Largest concise Abelian subgroup C1      NOp   1
                         Standard orientation:                         
 ---------------------------------------------------------------------
 Center     Atomic      Atomic             Coordinates (Angstroms)
 Number     Number       Type             X           Y           Z
 ---------------------------------------------------------------------
      1         16           0       -0.157088   -0.545673    0.019290
      2          8           0        1.229813    0.295208   -0.059163
      3          8           0       -1.038220    0.651464   -0.029043
      4          1           0        0.980664    1.157392    0.397015
 ---------------------------------------------------------------------
 Rotational constants (GHZ):          26.3041269          11.6297719           8.1219548
 Standard basis: 6-311+G(3df) (5D, 7F)
 There are   146 symmetry adapted cartesian basis functions of A   symmetry.
 There are   128 symmetry adapted basis functions of A   symmetry.
   128 basis functions,   193 primitive gaussians,   146 cartesian basis functions
    17 alpha electrons       16 beta electrons
       nuclear repulsion energy       112.2711132000 Hartrees.
 NAtoms=    4 NActive=    4 NUniq=    4 SFac= 1.00D+00 NAtFMM=   60 NAOKFM=F Big=F
 Integral buffers will be    131072 words long.
 Raffenetti 2 integral format.
 Two-electron integral symmetry is turned on.
 One-electron integrals computed using PRISM.
 NBasis=   128 RedAO= T EigKep=  1.04D-03  NBF=   128
 NBsUse=   128 1.00D-06 EigRej= -1.00D+00 NBFU=   128
 ExpMin= 4.05D-02 ExpMax= 9.34D+04 ExpMxC= 3.17D+03 IAcc=3 IRadAn=         5 AccDes= 0.00D+00
 Harris functional with IExCor=  402 and IRadAn=       5 diagonalized for initial guess.
 HarFok:  IExCor=  402 AccDes= 0.00D+00 IRadAn=         5 IDoV= 1 UseB2=F ITyADJ=14
 ICtDFT=  3500011 ScaDFX=  1.000000  1.000000  1.000000  1.000000
 FoFCou: FMM=F IPFlag=           0 FMFlag=      100000 FMFlg1=           0
         NFxFlg=           0 DoJE=T BraDBF=F KetDBF=T FulRan=T
         wScrn=  0.000000 ICntrl=       500 IOpCl=  0 I1Cent=   200000004 NGrid=           0
         NMat0=    1 NMatS0=      1 NMatT0=    0 NMatD0=    1 NMtDS0=    0 NMtDT0=    0
 Petite list used in FoFCou.
 Initial guess <Sx>= 0.0000 <Sy>= 0.0000 <Sz>= 0.5000 <S**2>= 0.7500 S= 0.5000
 Keep R1 and R2 ints in memory in canonical form, NReq=70152986.
 Requested convergence on RMS density matrix=1.00D-08 within 128 cycles.
 Requested convergence on MAX density matrix=1.00D-06.
 Requested convergence on             energy=1.00D-06.
 No special actions if energy rises.
 SCF Done:  E(UB3LYP) =  -549.281000639     A.U. after   15 cycles
            NFock= 15  Conv=0.59D-08     -V/T= 2.0018
 <Sx>= 0.0000 <Sy>= 0.0000 <Sz>= 0.5000 <S**2>= 0.7552 S= 0.5026
 <L.S>= 0.000000000000E+00
 Annihilation of the first spin contaminant:
 S**2 before annihilation     0.7552,   after     0.7500

 **********************************************************************

            Population analysis using the SCF density.

 **********************************************************************

 Orbital symmetries:
 Alpha Orbitals:
       Occupied  (A) (A) (A) (A) (A) (A) (A) (A) (A) (A) (A) (A)
                 (A) (A) (A) (A) (A)
       Virtual   (A) (A) (A) (A) (A) (A) (A) (A) (A) (A) (A) (A)
                 (A) (A) (A) (A) (A) (A) (A) (A) (A) (A) (A) (A)
                 (A) (A) (A) (A) (A) (A) (A) (A) (A) (A) (A) (A)
                 (A) (A) (A) (A) (A) (A) (A) (A) (A) (A) (A) (A)
                 (A) (A) (A) (A) (A) (A) (A) (A) (A) (A) (A) (A)
                 (A) (A) (A) (A) (A) (A) (A) (A) (A) (A) (A) (A)
                 (A) (A) (A) (A) (A) (A) (A) (A) (A) (A) (A) (A)
                 (A) (A) (A) (A) (A) (A) (A) (A) (A) (A) (A) (A)
                 (A) (A) (A) (A) (A) (A) (A) (A) (A) (A) (A) (A)
                 (A) (A) (A)
 Beta  Orbitals:
       Occupied  (A) (A) (A) (A) (A) (A) (A) (A) (A) (A) (A) (A)
                 (A) (A) (A) (A)
       Virtual   (A) (A) (A) (A) (A) (A) (A) (A) (A) (A) (A) (A)
                 (A) (A) (A) (A) (A) (A) (A) (A) (A) (A) (A) (A)
                 (A) (A) (A) (A) (A) (A) (A) (A) (A) (A) (A) (A)
                 (A) (A) (A) (A) (A) (A) (A) (A) (A) (A) (A) (A)
                 (A) (A) (A) (A) (A) (A) (A) (A) (A) (A) (A) (A)
                 (A) (A) (A) (A) (A) (A) (A) (A) (A) (A) (A) (A)
                 (A) (A) (A) (A) (A) (A) (A) (A) (A) (A) (A) (A)
                 (A) (A) (A) (A) (A) (A) (A) (A) (A) (A) (A) (A)
                 (A) (A) (A) (A) (A) (A) (A) (A) (A) (A) (A) (A)
                 (A) (A) (A) (A)
 The electronic state is 2-A.
 Alpha  occ. eigenvalues --  -88.98961 -19.18839 -19.15744  -8.06291  -6.02668
 Alpha  occ. eigenvalues --   -6.02455  -6.02114  -1.12533  -1.02644  -0.70172
 Alpha  occ. eigenvalues --   -0.53869  -0.48831  -0.47562  -0.42333  -0.37551
 Alpha  occ. eigenvalues --   -0.33062  -0.24446
 Alpha virt. eigenvalues --   -0.04673  -0.00599   0.01315   0.04130   0.05562
 Alpha virt. eigenvalues --    0.07063   0.12257   0.14710   0.16882   0.17251
 Alpha virt. eigenvalues --    0.17907   0.20221   0.22901   0.24912   0.25607
 Alpha virt. eigenvalues --    0.27540   0.28024   0.30830   0.31036   0.32860
 Alpha virt. eigenvalues --    0.35316   0.39031   0.47210   0.60156   0.66559
 Alpha virt. eigenvalues --    0.73441   0.77104   0.82466   0.84066   0.84802
 Alpha virt. eigenvalues --    0.86166   0.88161   0.91002   0.94383   0.98405
 Alpha virt. eigenvalues --    0.99199   1.01292   1.03277   1.03727   1.08189
 Alpha virt. eigenvalues --    1.15097   1.21783   1.22590   1.29014   1.31647
 Alpha virt. eigenvalues --    1.35298   1.56886   1.59135   1.63313   1.72520
 Alpha virt. eigenvalues --    1.85791   1.92482   1.97700   1.98237   2.03210
 Alpha virt. eigenvalues --    2.13789   2.16501   2.26966   2.39704   3.30188
 Alpha virt. eigenvalues --    3.36255   3.37349   3.39103   3.45551   3.46773
 Alpha virt. eigenvalues --    3.47374   3.50691   3.57564   3.58769   4.42939
 Alpha virt. eigenvalues --    4.44116   4.49091   4.60540   4.78005   4.89521
 Alpha virt. eigenvalues --    4.91212   4.92478   4.93339   4.97148   4.99359
 Alpha virt. eigenvalues --    5.00657   5.01173   5.09018   5.12814   5.16268
 Alpha virt. eigenvalues --    5.29120   5.40377   5.44028   5.48629   5.54027
 Alpha virt. eigenvalues --    5.55215   5.71148   5.89374   6.57549   8.60074
 Alpha virt. eigenvalues --   14.20357  14.24291  14.24427  14.26596  14.30632
 Alpha virt. eigenvalues --   14.32319  14.32512  14.37203  14.47017  14.58847
 Alpha virt. eigenvalues --   17.21374  17.51007  17.67905  49.88670  49.97205
 Alpha virt. eigenvalues --  189.57862
  Beta  occ. eigenvalues --  -88.98576 -19.18620 -19.14732  -8.05939  -6.02460
  Beta  occ. eigenvalues --   -6.01931  -6.01217  -1.11526  -1.01260  -0.67920
  Beta  occ. eigenvalues --   -0.52727  -0.48107  -0.44789  -0.40199  -0.34367
  Beta  occ. eigenvalues --   -0.32141
  Beta virt. eigenvalues --   -0.12725  -0.03944  -0.00297   0.01670   0.04452
  Beta virt. eigenvalues --    0.06173   0.07460   0.12699   0.14943   0.17184
  Beta virt. eigenvalues --    0.17579   0.18211   0.20722   0.23196   0.25070
  Beta virt. eigenvalues --    0.26834   0.28180   0.28909   0.31323   0.32319
  Beta virt. eigenvalues --    0.33283   0.35710   0.40317   0.47422   0.60568
  Beta virt. eigenvalues --    0.67016   0.73724   0.77531   0.83708   0.84815
  Beta virt. eigenvalues --    0.86002   0.86913   0.89342   0.91935   0.94871
  Beta virt. eigenvalues --    0.99053   1.00375   1.03543   1.03660   1.04314
  Beta virt. eigenvalues --    1.08969   1.15947   1.22822   1.23402   1.29738
  Beta virt. eigenvalues --    1.32007   1.35684   1.60263   1.60964   1.65079
  Beta virt. eigenvalues --    1.74057   1.86649   1.93990   1.98423   2.00628
  Beta virt. eigenvalues --    2.03305   2.14404   2.17204   2.27877   2.40085
  Beta virt. eigenvalues --    3.31050   3.38111   3.39433   3.40717   3.46619
  Beta virt. eigenvalues --    3.47753   3.49027   3.51239   3.57898   3.59908
  Beta virt. eigenvalues --    4.43562   4.44319   4.50111   4.61207   4.78625
  Beta virt. eigenvalues --    4.90244   4.91679   4.93444   4.94650   4.98280
  Beta virt. eigenvalues --    5.02115   5.02819   5.03643   5.09546   5.14188
  Beta virt. eigenvalues --    5.17005   5.29761   5.40885   5.44642   5.49614
  Beta virt. eigenvalues --    5.54656   5.56339   5.73029   5.89659   6.57974
  Beta virt. eigenvalues --    8.60558  14.21492  14.26947  14.27396  14.28431
  Beta virt. eigenvalues --   14.31710  14.33470  14.36009  14.38047  14.47449
  Beta virt. eigenvalues --   14.60395  17.23013  17.51312  17.68186  49.88987
  Beta virt. eigenvalues --   49.98110 189.58210
          Condensed to atoms (all electrons):
               1          2          3          4
     1  S   15.221277   0.062289   0.178779  -0.003769
     2  O    0.062289   8.390476  -0.051359   0.201988
     3  O    0.178779  -0.051359   8.281532   0.007731
     4  H   -0.003769   0.201988   0.007731   0.315398
          Atomic-Atomic Spin Densities.
               1          2          3          4
     1  S    0.894103  -0.082215  -0.176326  -0.005740
     2  O   -0.082215   0.115688   0.021764  -0.007316
     3  O   -0.176326   0.021764   0.467768   0.002390
     4  H   -0.005740  -0.007316   0.002390   0.017324
 Mulliken charges and spin densities:
               1          2
     1  S    0.541425   0.629823
     2  O   -0.603394   0.047922
     3  O   -0.416684   0.315596
     4  H    0.478652   0.006660
 Sum of Mulliken charges =  -0.00000   1.00000
 Mulliken charges and spin densities with hydrogens summed into heavy atoms:
               1          2
     1  S    0.541425   0.629823
     2  O   -0.124742   0.054581
     3  O   -0.416684   0.315596
 Electronic spatial extent (au):  <R**2>=            169.6829
 Charge=             -0.0000 electrons
 Dipole moment (field-independent basis, Debye):
    X=              0.7899    Y=             -0.6428    Z=              0.7431  Tot=              1.2608
 Quadrupole moment (field-independent basis, Debye-Ang):
   XX=            -27.2231   YY=            -21.4598   ZZ=            -23.5686
   XY=              2.8000   XZ=              0.7773   YZ=              1.1836
 Traceless Quadrupole moment (field-independent basis, Debye-Ang):
   XX=             -3.1393   YY=              2.6241   ZZ=              0.5152
   XY=              2.8000   XZ=              0.7773   YZ=              1.1836
 Octapole moment (field-independent basis, Debye-Ang**2):
  XXX=             -0.2910  YYY=              4.3205  ZZZ=              0.0040  XYY=              3.7141
  XXY=             -0.5495  XXZ=              0.6091  XZZ=              0.4061  YZZ=              1.3843
  YYZ=              1.3688  XYZ=              1.1972
 Hexadecapole moment (field-independent basis, Debye-Ang**3):
 XXXX=           -126.5926 YYYY=            -63.0848 ZZZZ=            -25.8983 XXXY=              3.7902
 XXXZ=              0.7170 YYYX=              4.5706 YYYZ=              1.8798 ZZZX=              0.4449
 ZZZY=              0.8446 XXYY=            -27.5271 XXZZ=            -24.1279 YYZZ=            -15.7569
 XXYZ=              1.3495 YYXZ=              1.4148 ZZXY=              0.4708
 N-N= 1.122711132000D+02 E-N=-1.528509606143D+03  KE= 5.482899705250D+02
                          Isotropic Fermi Contact Couplings
        Atom                 a.u.       MegaHertz       Gauss      10(-4) cm-1
     1  S(33)              0.04403      15.12380       5.39655       5.04476
     2  O(17)              0.01959     -11.87745      -4.23817      -3.96189
     3  O(17)              0.03388     -20.53683      -7.32805      -6.85035
     4  H(1)               0.00312      13.95885       4.98087       4.65617
 --------------------------------------------------------
       Center         ----  Spin Dipole Couplings  ----
                      3XX-RR        3YY-RR        3ZZ-RR
 --------------------------------------------------------
     1   Atom       -1.460787     -1.563533      3.024319
     2   Atom       -0.188382     -0.148096      0.336479
     3   Atom       -0.787341     -0.797902      1.585243
     4   Atom       -0.001088      0.011884     -0.010796
 --------------------------------------------------------
                        XY            XZ            YZ
 --------------------------------------------------------
     1   Atom       -0.007746     -0.085526      0.172701
     2   Atom       -0.013227      0.062003     -0.148432
     3   Atom        0.005250      0.086497     -0.001054
     4   Atom        0.002907      0.001633      0.006728
 --------------------------------------------------------


 ---------------------------------------------------------------------------------
              Anisotropic Spin Dipole Couplings in Principal Axis System
 ---------------------------------------------------------------------------------

       Atom             a.u.   MegaHertz   Gauss  10(-4) cm-1        Axes

              Baa    -1.5702   -64.377   -22.971   -21.474  0.0420  0.9984 -0.0367
     1 S(33)  Bbb    -1.4622   -59.950   -21.392   -19.997  0.9989 -0.0412  0.0206
              Bcc     3.0324   124.328    44.363    41.471 -0.0191  0.0376  0.9991
 
              Baa    -0.1975    14.294     5.100     4.768  0.8761 -0.4286 -0.2209
     2 O(17)  Bbb    -0.1878    13.587     4.848     4.532  0.4696  0.8625  0.1887
              Bcc     0.3853   -27.881    -9.948    -9.300  0.1096 -0.2690  0.9569
 
              Baa    -0.8007    57.935    20.672    19.325 -0.4611  0.8872  0.0171
     3 O(17)  Bbb    -0.7877    57.000    20.339    19.013  0.8866  0.4614 -0.0321
              Bcc     1.5884  -114.935   -41.012   -38.338  0.0364 -0.0004  0.9993
 
              Baa    -0.0127    -6.776    -2.418    -2.260 -0.0717 -0.2554  0.9642
     4 H(1)   Bbb    -0.0017    -0.911    -0.325    -0.304  0.9762 -0.2164  0.0152
              Bcc     0.0144     7.687     2.743     2.564  0.2047  0.9423  0.2648
 

 ---------------------------------------------------------------------------------

 1\1\GINC-QCEXNOD57\SP\UB3LYP\6-311+G(3df)\H1O2S1(2)\ROOT\16-Jul-2026\0
 \\#sp b3lyp/6-311+G(3df)\\single point of HOSO\\0,2\S,0,-0.14717,-0.54
 9675,0.022424\O,0,1.216478,0.328099,-0.059462\O,0,-1.060263,0.623268,-
 0.025893\H,0,0.944997,1.183861,0.396065\\Version=ES64L-G16RevA.03\Stat
 e=2-A\HF=-549.2810006\S2=0.755153\S2-1=0.\S2A=0.750018\RMSD=5.944e-09\
 Dipole=0.3179662,-0.2440861,0.2921593\Quadrupole=-2.4409593,2.0620782,
 0.3788811,1.9657354,0.5562333,0.8897399\PG=C01 [X(H1O2S1)]\\@


 THE SCIENTIFIC THEORIST IS NOT TO BE ENVIED. FOR NATURE, OR MORE
 PRECISELY EXPERIMENT, IS AN INEXORABLE AND NOT VERY FRIENDLY JUDGE OF HIS
 WORK.  IT NEVER SAYS "YES" TO A THEORY. IN THE MOST FAVORABLE CASES
 IT SAYS "MAYBE", AND IN THE GREAT MAJORITY OF CASES SIMPLY "NO"...
 PROBABLY EVERY THEORY WILL SOME DAY EXPERIENCE ITS "NO" - MOST
 THEORIES, SOON AFTER CONCEPTION.  -- A.EINSTEIN, NOV 11, 1922.
 Job cpu time:       0 days  0 hours  0 minutes 17.9 seconds.
 Elapsed time:       0 days  0 hours  0 minutes  9.3 seconds.
 File lengths (MBytes):  RWF=     16 Int=      0 D2E=      0 Chk=      2 Scr=      1
 Normal termination of Gaussian 16 at Thu Jul 16 14:38:13 2026.
