 Entering Gaussian System, Link 0=g16
 Initial command:
 /soft/g16.a03/g16/l1.exe "/scr/macias/295998.qcexmaster.qcexval.uv.es_vib1_-0.20/Gau-14656.inp" -scrdir="/scr/macias/295998.qcexmaster.qcexval.uv.es_vib1_-0.20/"
 Entering Link 1 = /soft/g16.a03/g16/l1.exe PID=     14678.
  
 Copyright (c) 1988,1990,1992,1993,1995,1998,2003,2009,2016,
            Gaussian, Inc.  All Rights Reserved.
  
 This is part of the Gaussian(R) 16 program.  It is based on
 the Gaussian(R) 09 system (copyright 2009, Gaussian, Inc.),
 the Gaussian(R) 03 system (copyright 2003, Gaussian, Inc.),
 the Gaussian(R) 98 system (copyright 1998, Gaussian, Inc.),
 the Gaussian(R) 94 system (copyright 1995, Gaussian, Inc.),
 the Gaussian 92(TM) system (copyright 1992, Gaussian, Inc.),
 the Gaussian 90(TM) system (copyright 1990, Gaussian, Inc.),
 the Gaussian 88(TM) system (copyright 1988, Gaussian, Inc.),
 the Gaussian 86(TM) system (copyright 1986, Carnegie Mellon
 University), and the Gaussian 82(TM) system (copyright 1983,
 Carnegie Mellon University). Gaussian is a federally registered
 trademark of Gaussian, Inc.
  
 This software contains proprietary and confidential information,
 including trade secrets, belonging to Gaussian, Inc.
  
 This software is provided under written license and may be
 used, copied, transmitted, or stored only in accord with that
 written license.
  
 The following legend is applicable only to US Government
 contracts under FAR:
  
                    RESTRICTED RIGHTS LEGEND
  
 Use, reproduction and disclosure by the US Government is
 subject to restrictions as set forth in subparagraphs (a)
 and (c) of the Commercial Computer Software - Restricted
 Rights clause in FAR 52.227-19.
  
 Gaussian, Inc.
 340 Quinnipiac St., Bldg. 40, Wallingford CT 06492
  
  
 ---------------------------------------------------------------
 Warning -- This program may not be used in any manner that
 competes with the business of Gaussian, Inc. or will provide
 assistance to any competitor of Gaussian, Inc.  The licensee
 of this program is prohibited from giving any competitor of
 Gaussian, Inc. access to this program.  By using this program,
 the user acknowledges that Gaussian, Inc. is engaged in the
 business of creating and licensing software in the field of
 computational chemistry and represents and warrants to the
 licensee that it is not a competitor of Gaussian, Inc. and that
 it will not use this program in any manner prohibited above.
 ---------------------------------------------------------------
  

 Cite this work as:
 Gaussian 16, Revision A.03,
 M. J. Frisch, G. W. Trucks, H. B. Schlegel, G. E. Scuseria, 
 M. A. Robb, J. R. Cheeseman, G. Scalmani, V. Barone, 
 G. A. Petersson, H. Nakatsuji, X. Li, M. Caricato, A. V. Marenich, 
 J. Bloino, B. G. Janesko, R. Gomperts, B. Mennucci, H. P. Hratchian, 
 J. V. Ortiz, A. F. Izmaylov, J. L. Sonnenberg, D. Williams-Young, 
 F. Ding, F. Lipparini, F. Egidi, J. Goings, B. Peng, A. Petrone, 
 T. Henderson, D. Ranasinghe, V. G. Zakrzewski, J. Gao, N. Rega, 
 G. Zheng, W. Liang, M. Hada, M. Ehara, K. Toyota, R. Fukuda, 
 J. Hasegawa, M. Ishida, T. Nakajima, Y. Honda, O. Kitao, H. Nakai, 
 T. Vreven, K. Throssell, J. A. Montgomery, Jr., J. E. Peralta, 
 F. Ogliaro, M. J. Bearpark, J. J. Heyd, E. N. Brothers, K. N. Kudin, 
 V. N. Staroverov, T. A. Keith, R. Kobayashi, J. Normand, 
 K. Raghavachari, A. P. Rendell, J. C. Burant, S. S. Iyengar, 
 J. Tomasi, M. Cossi, J. M. Millam, M. Klene, C. Adamo, R. Cammi, 
 J. W. Ochterski, R. L. Martin, K. Morokuma, O. Farkas, 
 J. B. Foresman, and D. J. Fox, Gaussian, Inc., Wallingford CT, 2016.
 
 ******************************************
 Gaussian 16:  ES64L-G16RevA.03 25-Dec-2016
                16-Jul-2026 
 ******************************************
 %chk=opt_freq.chk
 %nproc=2
 Will use up to    2 processors via shared memory.
 %mem=2GB
 ----------------------
 #sp b3lyp/6-311+G(3df)
 ----------------------
 1/38=1,172=1/1;
 2/12=2,17=6,18=5,40=1/2;
 3/5=4,6=6,7=16,11=2,25=1,30=1,74=-5/1,2,3;
 4//1;
 5/5=2,38=5/2;
 6/7=2,8=2,9=2,10=2,28=1/1;
 99/5=1,9=1/99;
 --------------------
 single point of HOSO
 --------------------
 Symbolic Z-matrix:
 Charge =  0 Multiplicity = 2
 S                    -0.14317  -0.48168   0.00842 
 O                     1.32848   0.2561   -0.02346 
 O                    -1.19026   0.55527  -0.00989 
 H                     1.181     1.23586   0.04407 
 
                          Input orientation:                          
 ---------------------------------------------------------------------
 Center     Atomic      Atomic             Coordinates (Angstroms)
 Number     Number       Type             X           Y           Z
 ---------------------------------------------------------------------
      1         16           0       -0.143170   -0.481675    0.008424
      2          8           0        1.328478    0.256099   -0.023462
      3          8           0       -1.190263    0.555268   -0.009893
      4          1           0        1.180997    1.235861    0.044065
 ---------------------------------------------------------------------
                    Distance matrix (angstroms):
                    1          2          3          4
     1  S    0.000000
     2  O    1.646534   0.000000
     3  O    1.473767   2.536482   0.000000
     4  H    2.169013   0.993098   2.467588   0.000000
 Stoichiometry    HO2S(2)
 Framework group  C1[X(HO2S)]
 Deg. of freedom     6
 Full point group                 C1      NOp   1
 Largest Abelian subgroup         C1      NOp   1
 Largest concise Abelian subgroup C1      NOp   1
                         Standard orientation:                         
 ---------------------------------------------------------------------
 Center     Atomic      Atomic             Coordinates (Angstroms)
 Number     Number       Type             X           Y           Z
 ---------------------------------------------------------------------
      1         16           0       -0.143042   -0.482390    0.004438
      2          8           0        1.328651    0.255808   -0.011625
      3          8           0       -1.190160    0.554641   -0.005682
      4          1           0        1.180756    1.234645    0.067434
 ---------------------------------------------------------------------
 Rotational constants (GHZ):          33.9827836           9.5363977           7.4482593
 Standard basis: 6-311+G(3df) (5D, 7F)
 There are   146 symmetry adapted cartesian basis functions of A   symmetry.
 There are   128 symmetry adapted basis functions of A   symmetry.
   128 basis functions,   193 primitive gaussians,   146 cartesian basis functions
    17 alpha electrons       16 beta electrons
       nuclear repulsion energy       110.3320416352 Hartrees.
 NAtoms=    4 NActive=    4 NUniq=    4 SFac= 1.00D+00 NAtFMM=   60 NAOKFM=F Big=F
 Integral buffers will be    131072 words long.
 Raffenetti 2 integral format.
 Two-electron integral symmetry is turned on.
 One-electron integrals computed using PRISM.
 NBasis=   128 RedAO= T EigKep=  9.61D-04  NBF=   128
 NBsUse=   128 1.00D-06 EigRej= -1.00D+00 NBFU=   128
 ExpMin= 4.05D-02 ExpMax= 9.34D+04 ExpMxC= 3.17D+03 IAcc=3 IRadAn=         5 AccDes= 0.00D+00
 Harris functional with IExCor=  402 and IRadAn=       5 diagonalized for initial guess.
 HarFok:  IExCor=  402 AccDes= 0.00D+00 IRadAn=         5 IDoV= 1 UseB2=F ITyADJ=14
 ICtDFT=  3500011 ScaDFX=  1.000000  1.000000  1.000000  1.000000
 FoFCou: FMM=F IPFlag=           0 FMFlag=      100000 FMFlg1=           0
         NFxFlg=           0 DoJE=T BraDBF=F KetDBF=T FulRan=T
         wScrn=  0.000000 ICntrl=       500 IOpCl=  0 I1Cent=   200000004 NGrid=           0
         NMat0=    1 NMatS0=      1 NMatT0=    0 NMatD0=    1 NMtDS0=    0 NMtDT0=    0
 Petite list used in FoFCou.
 Initial guess <Sx>= 0.0000 <Sy>= 0.0000 <Sz>= 0.5000 <S**2>= 0.7500 S= 0.5000
 Keep R1 and R2 ints in memory in canonical form, NReq=70152760.
 Requested convergence on RMS density matrix=1.00D-08 within 128 cycles.
 Requested convergence on MAX density matrix=1.00D-06.
 Requested convergence on             energy=1.00D-06.
 No special actions if energy rises.
 SCF Done:  E(UB3LYP) =  -549.293406534     A.U. after   14 cycles
            NFock= 14  Conv=0.24D-08     -V/T= 2.0019
 <Sx>= 0.0000 <Sy>= 0.0000 <Sz>= 0.5000 <S**2>= 0.7552 S= 0.5026
 <L.S>= 0.000000000000E+00
 Annihilation of the first spin contaminant:
 S**2 before annihilation     0.7552,   after     0.7500

 **********************************************************************

            Population analysis using the SCF density.

 **********************************************************************

 Orbital symmetries:
 Alpha Orbitals:
       Occupied  (A) (A) (A) (A) (A) (A) (A) (A) (A) (A) (A) (A)
                 (A) (A) (A) (A) (A)
       Virtual   (A) (A) (A) (A) (A) (A) (A) (A) (A) (A) (A) (A)
                 (A) (A) (A) (A) (A) (A) (A) (A) (A) (A) (A) (A)
                 (A) (A) (A) (A) (A) (A) (A) (A) (A) (A) (A) (A)
                 (A) (A) (A) (A) (A) (A) (A) (A) (A) (A) (A) (A)
                 (A) (A) (A) (A) (A) (A) (A) (A) (A) (A) (A) (A)
                 (A) (A) (A) (A) (A) (A) (A) (A) (A) (A) (A) (A)
                 (A) (A) (A) (A) (A) (A) (A) (A) (A) (A) (A) (A)
                 (A) (A) (A) (A) (A) (A) (A) (A) (A) (A) (A) (A)
                 (A) (A) (A) (A) (A) (A) (A) (A) (A) (A) (A) (A)
                 (A) (A) (A)
 Beta  Orbitals:
       Occupied  (A) (A) (A) (A) (A) (A) (A) (A) (A) (A) (A) (A)
                 (A) (A) (A) (A)
       Virtual   (A) (A) (A) (A) (A) (A) (A) (A) (A) (A) (A) (A)
                 (A) (A) (A) (A) (A) (A) (A) (A) (A) (A) (A) (A)
                 (A) (A) (A) (A) (A) (A) (A) (A) (A) (A) (A) (A)
                 (A) (A) (A) (A) (A) (A) (A) (A) (A) (A) (A) (A)
                 (A) (A) (A) (A) (A) (A) (A) (A) (A) (A) (A) (A)
                 (A) (A) (A) (A) (A) (A) (A) (A) (A) (A) (A) (A)
                 (A) (A) (A) (A) (A) (A) (A) (A) (A) (A) (A) (A)
                 (A) (A) (A) (A) (A) (A) (A) (A) (A) (A) (A) (A)
                 (A) (A) (A) (A) (A) (A) (A) (A) (A) (A) (A) (A)
                 (A) (A) (A) (A)
 The electronic state is 2-A.
 Alpha  occ. eigenvalues --  -88.98455 -19.19603 -19.16384  -8.05764  -6.02152
 Alpha  occ. eigenvalues --   -6.01915  -6.01583  -1.11611  -1.04493  -0.70312
 Alpha  occ. eigenvalues --   -0.54115  -0.48207  -0.47634  -0.42136  -0.38831
 Alpha  occ. eigenvalues --   -0.34442  -0.23351
 Alpha virt. eigenvalues --   -0.02990  -0.00230   0.01443   0.03626   0.04560
 Alpha virt. eigenvalues --    0.07532   0.11733   0.14962   0.16407   0.16916
 Alpha virt. eigenvalues --    0.18699   0.20143   0.23262   0.24653   0.25369
 Alpha virt. eigenvalues --    0.28144   0.28859   0.29546   0.30924   0.32092
 Alpha virt. eigenvalues --    0.33275   0.42294   0.47031   0.60192   0.69663
 Alpha virt. eigenvalues --    0.71771   0.78988   0.79171   0.86371   0.87976
 Alpha virt. eigenvalues --    0.88427   0.88445   0.91559   0.93960   0.96035
 Alpha virt. eigenvalues --    1.00169   1.00817   1.03307   1.04885   1.07563
 Alpha virt. eigenvalues --    1.12227   1.19292   1.23358   1.28731   1.30153
 Alpha virt. eigenvalues --    1.33180   1.57054   1.58679   1.65266   1.70499
 Alpha virt. eigenvalues --    1.83053   1.92811   1.97023   1.99118   2.03073
 Alpha virt. eigenvalues --    2.10555   2.22054   2.25847   2.36775   3.27681
 Alpha virt. eigenvalues --    3.32669   3.36231   3.38921   3.40729   3.45940
 Alpha virt. eigenvalues --    3.46880   3.53085   3.59975   3.60269   4.42886
 Alpha virt. eigenvalues --    4.46427   4.50171   4.58702   4.79645   4.88686
 Alpha virt. eigenvalues --    4.92285   4.93531   4.95396   4.95921   4.97316
 Alpha virt. eigenvalues --    4.99777   5.00847   5.05013   5.13085   5.14393
 Alpha virt. eigenvalues --    5.29965   5.34141   5.41815   5.44335   5.54643
 Alpha virt. eigenvalues --    5.58894   5.73371   5.88034   6.44768   8.61795
 Alpha virt. eigenvalues --   14.18516  14.21904  14.23540  14.25913  14.27575
 Alpha virt. eigenvalues --   14.31969  14.32340  14.35686  14.47790  14.57645
 Alpha virt. eigenvalues --   17.21622  17.46938  17.72850  49.87968  49.96103
 Alpha virt. eigenvalues --  189.57926
  Beta  occ. eigenvalues --  -88.98061 -19.19286 -19.15395  -8.05405  -6.01941
  Beta  occ. eigenvalues --   -6.01398  -6.00649  -1.10483  -1.03132  -0.68214
  Beta  occ. eigenvalues --   -0.53083  -0.47647  -0.43795  -0.40869  -0.35126
  Beta  occ. eigenvalues --   -0.33419
  Beta virt. eigenvalues --   -0.11628  -0.02421   0.00194   0.02037   0.04234
  Beta virt. eigenvalues --    0.04796   0.07692   0.11952   0.15211   0.16868
  Beta virt. eigenvalues --    0.17122   0.19514   0.20205   0.23466   0.24718
  Beta virt. eigenvalues --    0.26686   0.28470   0.29549   0.30692   0.32547
  Beta virt. eigenvalues --    0.32780   0.33477   0.43000   0.47147   0.60624
  Beta virt. eigenvalues --    0.70259   0.72178   0.79517   0.80181   0.87342
  Beta virt. eigenvalues --    0.88196   0.89355   0.90073   0.92648   0.94607
  Beta virt. eigenvalues --    0.97044   1.01042   1.03079   1.03591   1.05162
  Beta virt. eigenvalues --    1.08213   1.13593   1.19643   1.24965   1.29151
  Beta virt. eigenvalues --    1.30738   1.33490   1.60460   1.60548   1.66852
  Beta virt. eigenvalues --    1.72187   1.83821   1.94418   1.97791   2.01598
  Beta virt. eigenvalues --    2.03155   2.10919   2.22529   2.26709   2.37223
  Beta virt. eigenvalues --    3.28799   3.34174   3.38621   3.40030   3.42134
  Beta virt. eigenvalues --    3.47489   3.48414   3.53718   3.60522   3.61141
  Beta virt. eigenvalues --    4.43673   4.46579   4.51203   4.59248   4.80281
  Beta virt. eigenvalues --    4.89519   4.93560   4.94133   4.96096   4.96921
  Beta virt. eigenvalues --    5.01186   5.02042   5.02691   5.05731   5.14022
  Beta virt. eigenvalues --    5.15768   5.30666   5.34670   5.42768   5.45119
  Beta virt. eigenvalues --    5.55290   5.59624   5.75199   5.88544   6.45187
  Beta virt. eigenvalues --    8.62289  14.20019  14.24239  14.26857  14.27531
  Beta virt. eigenvalues --   14.29661  14.33011  14.35741  14.36288  14.48270
  Beta virt. eigenvalues --   14.59362  17.23298  17.47229  17.73151  49.88305
  Beta virt. eigenvalues --   49.97059 189.58282
          Condensed to atoms (all electrons):
               1          2          3          4
     1  S   15.333544  -0.008488   0.130354   0.011409
     2  O   -0.008488   8.418395   0.004819   0.198751
     3  O    0.130354   0.004819   8.256102   0.001667
     4  H    0.011409   0.198751   0.001667   0.314936
          Atomic-Atomic Spin Densities.
               1          2          3          4
     1  S    0.937351  -0.109216  -0.192743   0.002221
     2  O   -0.109216   0.161652   0.020278  -0.002213
     3  O   -0.192743   0.020278   0.468850  -0.001549
     4  H    0.002221  -0.002213  -0.001549  -0.001408
 Mulliken charges and spin densities:
               1          2
     1  S    0.533182   0.637613
     2  O   -0.613477   0.070500
     3  O   -0.392942   0.294836
     4  H    0.473237  -0.002949
 Sum of Mulliken charges =  -0.00000   1.00000
 Mulliken charges and spin densities with hydrogens summed into heavy atoms:
               1          2
     1  S    0.533182   0.637613
     2  O   -0.140240   0.067551
     3  O   -0.392942   0.294836
 Electronic spatial extent (au):  <R**2>=            180.1693
 Charge=             -0.0000 electrons
 Dipole moment (field-independent basis, Debye):
    X=              1.1365    Y=              0.0769    Z=              0.1371  Tot=              1.1474
 Quadrupole moment (field-independent basis, Debye-Ang):
   XX=            -27.1898   YY=            -20.9966   ZZ=            -24.0460
   XY=              3.3620   XZ=              0.1671   YZ=              0.2252
 Traceless Quadrupole moment (field-independent basis, Debye-Ang):
   XX=             -3.1124   YY=              3.0809   ZZ=              0.0315
   XY=              3.3620   XZ=              0.1671   YZ=              0.2252
 Octapole moment (field-independent basis, Debye-Ang**2):
  XXX=              0.7825  YYY=              5.5302  ZZZ=             -0.0212  XYY=              4.7453
  XXY=              0.7184  XXZ=              0.1939  XZZ=             -0.1652  YZZ=              1.0270
  YYZ=              0.2740  XYZ=              0.2636
 Hexadecapole moment (field-independent basis, Debye-Ang**3):
 XXXX=           -146.1003 YYYY=            -53.2738 ZZZZ=            -25.7384 XXXY=              5.4679
 XXXZ=              0.2526 YYYX=              6.6053 YYYZ=              0.3947 ZZZX=              0.0780
 ZZZY=              0.1404 XXYY=            -27.6453 XXZZ=            -28.0109 YYZZ=            -14.6624
 XXYZ=              0.3574 YYXZ=              0.3240 ZZXY=              0.1964
 N-N= 1.103320416352D+02 E-N=-1.524602565856D+03  KE= 5.482563668621D+02
                          Isotropic Fermi Contact Couplings
        Atom                 a.u.       MegaHertz       Gauss      10(-4) cm-1
     1  S(33)              0.05521      18.96360       6.76669       6.32558
     2  O(17)              0.01402      -8.49753      -3.03213      -2.83447
     3  O(17)              0.03501     -21.22219      -7.57261      -7.07896
     4  H(1)              -0.00185      -8.28853      -2.95755      -2.76476
 --------------------------------------------------------
       Center         ----  Spin Dipole Couplings  ----
                      3XX-RR        3YY-RR        3ZZ-RR
 --------------------------------------------------------
     1   Atom       -1.493495     -1.617412      3.110907
     2   Atom       -0.273114     -0.253681      0.526795
     3   Atom       -0.777291     -0.778950      1.556241
     4   Atom       -0.009832      0.021196     -0.011364
 --------------------------------------------------------
                        XY            XZ            YZ
 --------------------------------------------------------
     1   Atom        0.001048     -0.016592      0.048604
     2   Atom        0.010643      0.006217     -0.035346
     3   Atom       -0.000265      0.021601      0.008439
     4   Atom        0.002952      0.000272      0.001311
 --------------------------------------------------------


 ---------------------------------------------------------------------------------
              Anisotropic Spin Dipole Couplings in Principal Axis System
 ---------------------------------------------------------------------------------

       Atom             a.u.   MegaHertz   Gauss  10(-4) cm-1        Axes

              Baa    -1.6179   -66.333   -23.669   -22.126 -0.0098  0.9999 -0.0103
     1 S(33)  Bbb    -1.4935   -61.234   -21.850   -20.425  0.9999  0.0098  0.0035
              Bcc     3.1115   127.567    45.519    42.552 -0.0036  0.0103  0.9999
 
              Baa    -0.2783    20.139     7.186     6.718  0.9038 -0.4273 -0.0257
     2 O(17)  Bbb    -0.2501    18.098     6.458     6.037  0.4280  0.9030  0.0377
              Bcc     0.5284   -38.237   -13.644   -12.755  0.0071 -0.0450  0.9990
 
              Baa    -0.7791    56.372    20.115    18.804  0.2140  0.9768 -0.0055
     3 O(17)  Bbb    -0.7774    56.253    20.073    18.764  0.9768 -0.2140 -0.0083
              Bcc     1.5565  -112.625   -40.187   -37.568  0.0093  0.0036  1.0000
 
              Baa    -0.0114    -6.101    -2.177    -2.035 -0.1144 -0.0295  0.9930
     4 H(1)   Bbb    -0.0101    -5.386    -1.922    -1.797  0.9890 -0.0980  0.1110
              Bcc     0.0215    11.487     4.099     3.831  0.0940  0.9948  0.0404
 

 ---------------------------------------------------------------------------------

 1\1\GINC-QCEXNOD57\SP\UB3LYP\6-311+G(3df)\H1O2S1(2)\ROOT\16-Jul-2026\0
 \\#sp b3lyp/6-311+G(3df)\\single point of HOSO\\0,2\S,0,-0.14317,-0.48
 1675,0.008424\O,0,1.328478,0.256099,-0.023462\O,0,-1.190263,0.555268,-
 0.009893\H,0,1.180997,1.235861,0.044065\\Version=ES64L-G16RevA.03\Stat
 e=2-A\HF=-549.2934065\S2=0.755219\S2-1=0.\S2A=0.750019\RMSD=2.443e-09\
 Dipole=0.4473887,0.0308678,0.0515278\Quadrupole=-2.3125174,2.2938065,0
 .0187109,2.5020465,0.1035979,0.1278475\PG=C01 [X(H1O2S1)]\\@


 This summer one third of the nation will be ill-housed
 ill-nourished and ill-clad. Only they call it a vacation.
 -- Jonas Salk
 Job cpu time:       0 days  0 hours  0 minutes 17.2 seconds.
 Elapsed time:       0 days  0 hours  0 minutes  9.3 seconds.
 File lengths (MBytes):  RWF=     16 Int=      0 D2E=      0 Chk=      2 Scr=      1
 Normal termination of Gaussian 16 at Thu Jul 16 14:38:03 2026.
