 Entering Gaussian System, Link 0=g16
 Initial command:
 /soft/g16.a03/g16/l1.exe "/scr/macias/296008.qcexmaster.qcexval.uv.es_vib2_-0.30/Gau-14661.inp" -scrdir="/scr/macias/296008.qcexmaster.qcexval.uv.es_vib2_-0.30/"
 Entering Link 1 = /soft/g16.a03/g16/l1.exe PID=     14673.
  
 Copyright (c) 1988,1990,1992,1993,1995,1998,2003,2009,2016,
            Gaussian, Inc.  All Rights Reserved.
  
 This is part of the Gaussian(R) 16 program.  It is based on
 the Gaussian(R) 09 system (copyright 2009, Gaussian, Inc.),
 the Gaussian(R) 03 system (copyright 2003, Gaussian, Inc.),
 the Gaussian(R) 98 system (copyright 1998, Gaussian, Inc.),
 the Gaussian(R) 94 system (copyright 1995, Gaussian, Inc.),
 the Gaussian 92(TM) system (copyright 1992, Gaussian, Inc.),
 the Gaussian 90(TM) system (copyright 1990, Gaussian, Inc.),
 the Gaussian 88(TM) system (copyright 1988, Gaussian, Inc.),
 the Gaussian 86(TM) system (copyright 1986, Carnegie Mellon
 University), and the Gaussian 82(TM) system (copyright 1983,
 Carnegie Mellon University). Gaussian is a federally registered
 trademark of Gaussian, Inc.
  
 This software contains proprietary and confidential information,
 including trade secrets, belonging to Gaussian, Inc.
  
 This software is provided under written license and may be
 used, copied, transmitted, or stored only in accord with that
 written license.
  
 The following legend is applicable only to US Government
 contracts under FAR:
  
                    RESTRICTED RIGHTS LEGEND
  
 Use, reproduction and disclosure by the US Government is
 subject to restrictions as set forth in subparagraphs (a)
 and (c) of the Commercial Computer Software - Restricted
 Rights clause in FAR 52.227-19.
  
 Gaussian, Inc.
 340 Quinnipiac St., Bldg. 40, Wallingford CT 06492
  
  
 ---------------------------------------------------------------
 Warning -- This program may not be used in any manner that
 competes with the business of Gaussian, Inc. or will provide
 assistance to any competitor of Gaussian, Inc.  The licensee
 of this program is prohibited from giving any competitor of
 Gaussian, Inc. access to this program.  By using this program,
 the user acknowledges that Gaussian, Inc. is engaged in the
 business of creating and licensing software in the field of
 computational chemistry and represents and warrants to the
 licensee that it is not a competitor of Gaussian, Inc. and that
 it will not use this program in any manner prohibited above.
 ---------------------------------------------------------------
  

 Cite this work as:
 Gaussian 16, Revision A.03,
 M. J. Frisch, G. W. Trucks, H. B. Schlegel, G. E. Scuseria, 
 M. A. Robb, J. R. Cheeseman, G. Scalmani, V. Barone, 
 G. A. Petersson, H. Nakatsuji, X. Li, M. Caricato, A. V. Marenich, 
 J. Bloino, B. G. Janesko, R. Gomperts, B. Mennucci, H. P. Hratchian, 
 J. V. Ortiz, A. F. Izmaylov, J. L. Sonnenberg, D. Williams-Young, 
 F. Ding, F. Lipparini, F. Egidi, J. Goings, B. Peng, A. Petrone, 
 T. Henderson, D. Ranasinghe, V. G. Zakrzewski, J. Gao, N. Rega, 
 G. Zheng, W. Liang, M. Hada, M. Ehara, K. Toyota, R. Fukuda, 
 J. Hasegawa, M. Ishida, T. Nakajima, Y. Honda, O. Kitao, H. Nakai, 
 T. Vreven, K. Throssell, J. A. Montgomery, Jr., J. E. Peralta, 
 F. Ogliaro, M. J. Bearpark, J. J. Heyd, E. N. Brothers, K. N. Kudin, 
 V. N. Staroverov, T. A. Keith, R. Kobayashi, J. Normand, 
 K. Raghavachari, A. P. Rendell, J. C. Burant, S. S. Iyengar, 
 J. Tomasi, M. Cossi, J. M. Millam, M. Klene, C. Adamo, R. Cammi, 
 J. W. Ochterski, R. L. Martin, K. Morokuma, O. Farkas, 
 J. B. Foresman, and D. J. Fox, Gaussian, Inc., Wallingford CT, 2016.
 
 ******************************************
 Gaussian 16:  ES64L-G16RevA.03 25-Dec-2016
                16-Jul-2026 
 ******************************************
 %chk=opt_freq.chk
 %nproc=2
 Will use up to    2 processors via shared memory.
 %mem=2GB
 ----------------------
 #sp b3lyp/6-311+G(3df)
 ----------------------
 1/38=1,172=1/1;
 2/12=2,17=6,18=5,40=1/2;
 3/5=4,6=6,7=16,11=2,25=1,30=1,74=-5/1,2,3;
 4//1;
 5/5=2,38=5/2;
 6/7=2,8=2,9=2,10=2,28=1/1;
 99/5=1,9=1/99;
 --------------------
 single point of HOSO
 --------------------
 Symbolic Z-matrix:
 Charge =  0 Multiplicity = 2
 S                    -0.14617  -0.53168   0.02042 
 O                     1.24448   0.3101   -0.05446 
 O                    -1.09426   0.60527  -0.02389 
 H                     1.017     1.18386   0.35407 
 
                          Input orientation:                          
 ---------------------------------------------------------------------
 Center     Atomic      Atomic             Coordinates (Angstroms)
 Number     Number       Type             X           Y           Z
 ---------------------------------------------------------------------
      1         16           0       -0.146170   -0.531675    0.020424
      2          8           0        1.244478    0.310099   -0.054462
      3          8           0       -1.094263    0.605268   -0.023893
      4          1           0        1.016997    1.183861    0.354065
 ---------------------------------------------------------------------
                    Distance matrix (angstroms):
                    1          2          3          4
     1  S    0.000000
     2  O    1.627296   0.000000
     3  O    1.481041   2.357492   0.000000
     4  H    2.099366   0.991011   2.221495   0.000000
 Stoichiometry    HO2S(2)
 Framework group  C1[X(HO2S)]
 Deg. of freedom     6
 Full point group                 C1      NOp   1
 Largest Abelian subgroup         C1      NOp   1
 Largest concise Abelian subgroup C1      NOp   1
                         Standard orientation:                         
 ---------------------------------------------------------------------
 Center     Atomic      Atomic             Coordinates (Angstroms)
 Number     Number       Type             X           Y           Z
 ---------------------------------------------------------------------
      1         16           0       -0.151676   -0.529154    0.018371
      2          8           0        1.253314    0.288611   -0.054830
      3          8           0       -1.080029    0.623955   -0.026159
      4          1           0        1.040535    1.165940    0.353974
 ---------------------------------------------------------------------
 Rotational constants (GHZ):          28.0777760          11.0272304           7.9628011
 Standard basis: 6-311+G(3df) (5D, 7F)
 There are   146 symmetry adapted cartesian basis functions of A   symmetry.
 There are   128 symmetry adapted basis functions of A   symmetry.
   128 basis functions,   193 primitive gaussians,   146 cartesian basis functions
    17 alpha electrons       16 beta electrons
       nuclear repulsion energy       111.9349176856 Hartrees.
 NAtoms=    4 NActive=    4 NUniq=    4 SFac= 1.00D+00 NAtFMM=   60 NAOKFM=F Big=F
 Integral buffers will be    131072 words long.
 Raffenetti 2 integral format.
 Two-electron integral symmetry is turned on.
 One-electron integrals computed using PRISM.
 NBasis=   128 RedAO= T EigKep=  1.01D-03  NBF=   128
 NBsUse=   128 1.00D-06 EigRej= -1.00D+00 NBFU=   128
 ExpMin= 4.05D-02 ExpMax= 9.34D+04 ExpMxC= 3.17D+03 IAcc=3 IRadAn=         5 AccDes= 0.00D+00
 Harris functional with IExCor=  402 and IRadAn=       5 diagonalized for initial guess.
 HarFok:  IExCor=  402 AccDes= 0.00D+00 IRadAn=         5 IDoV= 1 UseB2=F ITyADJ=14
 ICtDFT=  3500011 ScaDFX=  1.000000  1.000000  1.000000  1.000000
 FoFCou: FMM=F IPFlag=           0 FMFlag=      100000 FMFlg1=           0
         NFxFlg=           0 DoJE=T BraDBF=F KetDBF=T FulRan=T
         wScrn=  0.000000 ICntrl=       500 IOpCl=  0 I1Cent=   200000004 NGrid=           0
         NMat0=    1 NMatS0=      1 NMatT0=    0 NMatD0=    1 NMtDS0=    0 NMtDT0=    0
 Petite list used in FoFCou.
 Initial guess <Sx>= 0.0000 <Sy>= 0.0000 <Sz>= 0.5000 <S**2>= 0.7500 S= 0.5000
 Keep R1 and R2 ints in memory in canonical form, NReq=70152945.
 Requested convergence on RMS density matrix=1.00D-08 within 128 cycles.
 Requested convergence on MAX density matrix=1.00D-06.
 Requested convergence on             energy=1.00D-06.
 No special actions if energy rises.
 SCF Done:  E(UB3LYP) =  -549.287197941     A.U. after   15 cycles
            NFock= 15  Conv=0.48D-08     -V/T= 2.0018
 <Sx>= 0.0000 <Sy>= 0.0000 <Sz>= 0.5000 <S**2>= 0.7552 S= 0.5026
 <L.S>= 0.000000000000E+00
 Annihilation of the first spin contaminant:
 S**2 before annihilation     0.7552,   after     0.7500

 **********************************************************************

            Population analysis using the SCF density.

 **********************************************************************

 Orbital symmetries:
 Alpha Orbitals:
       Occupied  (A) (A) (A) (A) (A) (A) (A) (A) (A) (A) (A) (A)
                 (A) (A) (A) (A) (A)
       Virtual   (A) (A) (A) (A) (A) (A) (A) (A) (A) (A) (A) (A)
                 (A) (A) (A) (A) (A) (A) (A) (A) (A) (A) (A) (A)
                 (A) (A) (A) (A) (A) (A) (A) (A) (A) (A) (A) (A)
                 (A) (A) (A) (A) (A) (A) (A) (A) (A) (A) (A) (A)
                 (A) (A) (A) (A) (A) (A) (A) (A) (A) (A) (A) (A)
                 (A) (A) (A) (A) (A) (A) (A) (A) (A) (A) (A) (A)
                 (A) (A) (A) (A) (A) (A) (A) (A) (A) (A) (A) (A)
                 (A) (A) (A) (A) (A) (A) (A) (A) (A) (A) (A) (A)
                 (A) (A) (A) (A) (A) (A) (A) (A) (A) (A) (A) (A)
                 (A) (A) (A)
 Beta  Orbitals:
       Occupied  (A) (A) (A) (A) (A) (A) (A) (A) (A) (A) (A) (A)
                 (A) (A) (A) (A)
       Virtual   (A) (A) (A) (A) (A) (A) (A) (A) (A) (A) (A) (A)
                 (A) (A) (A) (A) (A) (A) (A) (A) (A) (A) (A) (A)
                 (A) (A) (A) (A) (A) (A) (A) (A) (A) (A) (A) (A)
                 (A) (A) (A) (A) (A) (A) (A) (A) (A) (A) (A) (A)
                 (A) (A) (A) (A) (A) (A) (A) (A) (A) (A) (A) (A)
                 (A) (A) (A) (A) (A) (A) (A) (A) (A) (A) (A) (A)
                 (A) (A) (A) (A) (A) (A) (A) (A) (A) (A) (A) (A)
                 (A) (A) (A) (A) (A) (A) (A) (A) (A) (A) (A) (A)
                 (A) (A) (A) (A) (A) (A) (A) (A) (A) (A) (A) (A)
                 (A) (A) (A) (A)
 The electronic state is 2-A.
 Alpha  occ. eigenvalues --  -88.98807 -19.19013 -19.15899  -8.06135  -6.02517
 Alpha  occ. eigenvalues --   -6.02295  -6.01953  -1.12451  -1.03392  -0.70301
 Alpha  occ. eigenvalues --   -0.54124  -0.48767  -0.47605  -0.42353  -0.37853
 Alpha  occ. eigenvalues --   -0.33597  -0.24139
 Alpha virt. eigenvalues --   -0.04038  -0.00480   0.01435   0.04136   0.05350
 Alpha virt. eigenvalues --    0.07176   0.12265   0.14698   0.16866   0.17117
 Alpha virt. eigenvalues --    0.18100   0.20282   0.22915   0.24875   0.25563
 Alpha virt. eigenvalues --    0.27762   0.28159   0.30694   0.31088   0.32967
 Alpha virt. eigenvalues --    0.35261   0.38890   0.47892   0.60185   0.66869
 Alpha virt. eigenvalues --    0.73170   0.77094   0.81791   0.84569   0.85378
 Alpha virt. eigenvalues --    0.86497   0.88235   0.91095   0.94005   0.97984
 Alpha virt. eigenvalues --    0.99420   1.01289   1.03404   1.04125   1.08406
 Alpha virt. eigenvalues --    1.14173   1.22114   1.22895   1.28925   1.30395
 Alpha virt. eigenvalues --    1.34311   1.56977   1.59068   1.63808   1.72607
 Alpha virt. eigenvalues --    1.85127   1.92723   1.97825   1.98469   2.04279
 Alpha virt. eigenvalues --    2.11937   2.17712   2.26482   2.37297   3.29492
 Alpha virt. eigenvalues --    3.35801   3.37275   3.38949   3.44061   3.45952
 Alpha virt. eigenvalues --    3.47201   3.51609   3.59075   3.59353   4.42889
 Alpha virt. eigenvalues --    4.44645   4.49565   4.60080   4.78496   4.89321
 Alpha virt. eigenvalues --    4.91639   4.92583   4.93441   4.96731   4.98626
 Alpha virt. eigenvalues --    5.00527   5.00755   5.07735   5.13373   5.16198
 Alpha virt. eigenvalues --    5.29930   5.38180   5.44602   5.47707   5.55584
 Alpha virt. eigenvalues --    5.55780   5.72268   5.89019   6.55483   8.61254
 Alpha virt. eigenvalues --   14.19849  14.23881  14.24123  14.26261  14.30165
 Alpha virt. eigenvalues --   14.32091  14.32771  14.36447  14.47910  14.58417
 Alpha virt. eigenvalues --   17.21538  17.50577  17.69514  49.88898  49.96255
 Alpha virt. eigenvalues --  189.58818
  Beta  occ. eigenvalues --  -88.98420 -19.18775 -19.14889  -8.05781  -6.02309
  Beta  occ. eigenvalues --   -6.01770  -6.01052  -1.11433  -1.02004  -0.68115
  Beta  occ. eigenvalues --   -0.52981  -0.48034  -0.44685  -0.40291  -0.34613
  Beta  occ. eigenvalues --   -0.32672
  Beta virt. eigenvalues --   -0.12403  -0.03342  -0.00169   0.01813   0.04477
  Beta virt. eigenvalues --    0.06024   0.07477   0.12631   0.14974   0.17200
  Beta virt. eigenvalues --    0.17430   0.18420   0.20745   0.23206   0.25011
  Beta virt. eigenvalues --    0.26785   0.28263   0.29114   0.31242   0.32437
  Beta virt. eigenvalues --    0.33389   0.35762   0.40011   0.48087   0.60601
  Beta virt. eigenvalues --    0.67366   0.73468   0.77528   0.82984   0.85297
  Beta virt. eigenvalues --    0.86561   0.87293   0.89358   0.92100   0.94566
  Beta virt. eigenvalues --    0.98678   1.00502   1.03451   1.03868   1.04727
  Beta virt. eigenvalues --    1.09146   1.15096   1.23132   1.23657   1.29750
  Beta virt. eigenvalues --    1.30710   1.34691   1.60368   1.60897   1.65547
  Beta virt. eigenvalues --    1.74127   1.85987   1.94270   1.98457   2.00899
  Beta virt. eigenvalues --    2.04381   2.12564   2.18364   2.27392   2.37683
  Beta virt. eigenvalues --    3.30420   3.37599   3.39566   3.40591   3.44660
  Beta virt. eigenvalues --    3.47036   3.48940   3.52285   3.59538   3.60389
  Beta virt. eigenvalues --    4.43635   4.44733   4.50593   4.60733   4.79121
  Beta virt. eigenvalues --    4.90013   4.92152   4.93421   4.94634   4.98002
  Beta virt. eigenvalues --    5.01811   5.02758   5.02970   5.08280   5.14751
  Beta virt. eigenvalues --    5.16999   5.30568   5.38684   5.45309   5.48674
  Beta virt. eigenvalues --    5.55962   5.57012   5.74120   5.89354   6.55907
  Beta virt. eigenvalues --    8.61739  14.21071  14.26538  14.27264  14.28039
  Beta virt. eigenvalues --   14.31312  14.33362  14.36013  14.37304  14.48307
  Beta virt. eigenvalues --   14.60066  17.23184  17.50877  17.69801  49.89169
  Beta virt. eigenvalues --   49.97224 189.59167
          Condensed to atoms (all electrons):
               1          2          3          4
     1  S   15.250477   0.044094   0.168069   0.000088
     2  O    0.044094   8.393240  -0.032902   0.201816
     3  O    0.168069  -0.032902   8.267525   0.005768
     4  H    0.000088   0.201816   0.005768   0.314892
          Atomic-Atomic Spin Densities.
               1          2          3          4
     1  S    0.904751  -0.087647  -0.180723  -0.004436
     2  O   -0.087647   0.125172   0.021060  -0.006497
     3  O   -0.180723   0.021060   0.469896   0.001276
     4  H   -0.004436  -0.006497   0.001276   0.014117
 Mulliken charges and spin densities:
               1          2
     1  S    0.537272   0.631945
     2  O   -0.606248   0.052087
     3  O   -0.408461   0.311509
     4  H    0.477437   0.004460
 Sum of Mulliken charges =  -0.00000   1.00000
 Mulliken charges and spin densities with hydrogens summed into heavy atoms:
               1          2
     1  S    0.537272   0.631945
     2  O   -0.128811   0.056546
     3  O   -0.408461   0.311509
 Electronic spatial extent (au):  <R**2>=            171.9979
 Charge=             -0.0000 electrons
 Dipole moment (field-independent basis, Debye):
    X=              0.9004    Y=             -0.4678    Z=              0.6790  Tot=              1.2209
 Quadrupole moment (field-independent basis, Debye-Ang):
   XX=            -27.1726   YY=            -21.3964   ZZ=            -23.6463
   XY=              2.9273   XZ=              0.7512   YZ=              1.0849
 Traceless Quadrupole moment (field-independent basis, Debye-Ang):
   XX=             -3.1008   YY=              2.6753   ZZ=              0.4255
   XY=              2.9273   XZ=              0.7512   YZ=              1.0849
 Octapole moment (field-independent basis, Debye-Ang**2):
  XXX=              0.0447  YYY=              4.5768  ZZZ=             -0.0120  XYY=              3.9128
  XXY=             -0.2143  XXZ=              0.6752  XZZ=              0.3123  YZZ=              1.3305
  YYZ=              1.2605  XYZ=              1.1478
 Hexadecapole moment (field-independent basis, Debye-Ang**3):
 XXXX=           -131.2906 YYYY=            -60.4940 ZZZZ=            -25.8530 XXXY=              4.1730
 XXXZ=              0.8373 YYYX=              5.0010 YYYZ=              1.7513 ZZZX=              0.4192
 ZZZY=              0.7666 XXYY=            -27.4977 XXZZ=            -24.9814 YYZZ=            -15.3990
 XXYZ=              1.3735 YYXZ=              1.3642 ZZXY=              0.4478
 N-N= 1.119349176856D+02 E-N=-1.527834474297D+03  KE= 5.483024101592D+02
                          Isotropic Fermi Contact Couplings
        Atom                 a.u.       MegaHertz       Gauss      10(-4) cm-1
     1  S(33)              0.04672      16.04542       5.72540       5.35218
     2  O(17)              0.01892     -11.46984      -4.09272      -3.82593
     3  O(17)              0.03455     -20.94564      -7.47393      -6.98671
     4  H(1)               0.00226      10.08739       3.59943       3.36479
 --------------------------------------------------------
       Center         ----  Spin Dipole Couplings  ----
                      3XX-RR        3YY-RR        3ZZ-RR
 --------------------------------------------------------
     1   Atom       -1.466309     -1.573038      3.039347
     2   Atom       -0.206106     -0.166930      0.373036
     3   Atom       -0.787139     -0.795886      1.583025
     4   Atom       -0.003604      0.014521     -0.010917
 --------------------------------------------------------
                        XY            XZ            YZ
 --------------------------------------------------------
     1   Atom       -0.007067     -0.080420      0.172496
     2   Atom       -0.006318      0.049296     -0.140745
     3   Atom        0.004397      0.086112      0.012002
     4   Atom        0.002701      0.001358      0.006415
 --------------------------------------------------------


 ---------------------------------------------------------------------------------
              Anisotropic Spin Dipole Couplings in Principal Axis System
 ---------------------------------------------------------------------------------

       Atom             a.u.   MegaHertz   Gauss  10(-4) cm-1        Axes

              Baa    -1.5796   -64.763   -23.109   -21.603  0.0363  0.9987 -0.0367
     1 S(33)  Bbb    -1.4676   -60.170   -21.470   -20.071  0.9992 -0.0356  0.0192
              Bcc     3.0472   124.934    44.579    41.673 -0.0179  0.0373  0.9991
 
              Baa    -0.2128    15.397     5.494     5.136  0.8951 -0.4106 -0.1740
     2 O(17)  Bbb    -0.1987    14.376     5.130     4.795  0.4387  0.8806  0.1790
              Bcc     0.4115   -29.774   -10.624    -9.931  0.0797 -0.2365  0.9684
 
              Baa    -0.7980    57.741    20.604    19.260 -0.4564  0.8897  0.0120
     3 O(17)  Bbb    -0.7882    57.036    20.352    19.025  0.8890  0.4565 -0.0346
              Bcc     1.5862  -114.777   -40.955   -38.286  0.0363  0.0051  0.9993
 
              Baa    -0.0125    -6.669    -2.380    -2.225 -0.0807 -0.2226  0.9716
     4 H(1)   Bbb    -0.0040    -2.123    -0.758    -0.708  0.9861 -0.1597  0.0453
              Bcc     0.0165     8.792     3.137     2.933  0.1451  0.9617  0.2324
 

 ---------------------------------------------------------------------------------

 1\1\GINC-QCEXNOD57\SP\UB3LYP\6-311+G(3df)\H1O2S1(2)\ROOT\16-Jul-2026\0
 \\#sp b3lyp/6-311+G(3df)\\single point of HOSO\\0,2\S,0,-0.14617,-0.53
 1675,0.020424\O,0,1.244478,0.310099,-0.054462\O,0,-1.094263,0.605268,-
 0.023893\H,0,1.016997,1.183861,0.354065\\Version=ES64L-G16RevA.03\Stat
 e=2-A\HF=-549.2871979\S2=0.755158\S2-1=0.\S2A=0.750018\RMSD=4.772e-09\
 Dipole=0.3576014,-0.1777967,0.2669203\Quadrupole=-2.3780325,2.0635382,
 0.3144943,2.102219,0.5457573,0.8133018\PG=C01 [X(H1O2S1)]\\@


 This summer one third of the nation will be ill-housed
 ill-nourished and ill-clad. Only they call it a vacation.
 -- Jonas Salk
 Job cpu time:       0 days  0 hours  0 minutes 18.2 seconds.
 Elapsed time:       0 days  0 hours  0 minutes  9.5 seconds.
 File lengths (MBytes):  RWF=     16 Int=      0 D2E=      0 Chk=      2 Scr=      1
 Normal termination of Gaussian 16 at Thu Jul 16 14:38:03 2026.
